dump/Cu_720_0/steps_1 (written by ASE) 

2000 	 atoms 
1  atom types
0.0      25.526554800834361  xlo xhi
0.0              25.5265548  ylo yhi
0.0      36.100000000000001  zlo zhi


Atoms 

     1   1   0.0051169435591025339      25.323003196241462     0.31717428363125461
     2   1      1.4577701334224786      1.0676374278814849      1.9474145130714995
     3   1       25.50812621659751      2.3707890010857646      0.2594194158040411
     4   1      1.1385914821238692      3.6091453316562259      2.0367358481496116
     5   1      25.461501820552545      4.8696722601204314      36.052525369148995
     6   1      1.4678930714577343      6.2833022168555752      1.8264397770052492
     7   1      25.512112929153947      7.5369200346374283   0.0025802168392829116
     8   1      1.0743156916187224      8.7735774174242618      1.7268176291391564
     9   1      25.318978978190447      10.013358282844552      35.998287294987684
    10   1      1.2122325182258447      11.450090160705489      1.9420385812978005
    11   1      25.355486978909681      12.612500133987384      36.001309928455278
    12   1      1.1831748091796359      13.948227235126122      1.5191639659233476
    13   1      25.455098686178456      15.443106721655527   0.0063650974866391345
    14   1      1.2846940925358763      16.491039731469733      1.8279226991987467
    15   1       25.50005481389271      18.045570634210495      35.863199853632807
    16   1      1.4215285885940103      19.267806630755899      1.6475776438863605
    17   1     0.17169044144208412       20.30782981901649      36.057930354704773
    18   1      1.7613032815280545      21.691592580814962      1.6558998050633926
    19   1    0.038201773380933036      22.851733066858014    0.079179799153393945
    20   1      1.5619168491154447        24.0928012334765      1.7778734344133245
    21   1      2.7263159053998725       25.49329087543444      36.017074537347433
    22   1      4.0850683267175896      1.5203758878592295      2.0224199318943197
    23   1        2.48691140271157      2.5325679995022923    0.088008701957755994
    24   1      4.0783458249536979      3.8771399872329946      2.0066816281508535
    25   1      2.6860775406276862      4.7961886345204343     0.13239875955383684
    26   1      3.7708301067178511      6.2740445275951915      1.8313523295320353
    27   1      2.5407936644083677      7.7319201615376709    0.088124045589734176
    28   1      3.6178933754259517      8.8621728935548756      1.7643188484399155
    29   1      2.3365844119138099      10.211976690351973      36.042158797816029
    30   1      3.6928785091423206      11.408655482998846      1.7732387371923908
    31   1      2.5482859731834928      12.653738795222084      35.810178046351872
    32   1      3.7921949630983796      14.034227647056056      1.5184983361685214
    33   1      2.4941304878671078      15.215154619516634      35.610678191258465
    34   1      3.6236107038067988      16.530717163400691      1.4240884693312525
    35   1      2.5525683289074399      17.859921832810723      35.876437200891182
    36   1      3.6885284050535678      19.317742894850038      1.7788281935538643
    37   1      2.8016580404176872      20.363938068093518      35.899746912250073
    38   1      4.0795180536162752      21.701258886755205      1.9962373939230924
    39   1      2.5023241393657463      22.960627926806374    0.023401337816665112
    40   1      3.9601942037329816      24.473539795009948      1.6447461282185272
    41   1      5.3104267630240924      25.403205866608751    0.081526886246444857
    42   1       6.470405082065537      1.4661464304966212      1.6864713987780984
    43   1      4.8353828385926825      2.4428170801074205      35.971827866062078
    44   1      6.5822178735573882       3.945093032404531      1.7596697711642484
    45   1      5.2240215682035123      4.9524040323030887      0.1870255187970998
    46   1      6.3671704355307659      6.3934295873610534      1.7482915960140286
    47   1      5.0436833885705115      7.5246233379465526    0.040983990828931401
    48   1      6.2682575504781806      8.8082560160236625      1.7856754488647535
    49   1      5.0050575428491877      10.064481057960997      36.051614961044798
    50   1       6.211232993801163      11.594545461012562      1.9427487972700177
    51   1       4.907884516231368       12.54275097317141      35.932589983626364
    52   1      6.2481666609665378      13.837674337882776      1.6787103601636211
    53   1      4.8977234226425548      15.415395001291083      35.922561902042297
    54   1      6.0784317324382284      16.635596514528718      1.7365726045979506
    55   1      4.9566065060920739      18.015525108869472    0.059227576467685471
    56   1      6.2380832812348705       19.20254156772258      1.7909553695791596
    57   1      5.0966170080633022      20.524289223420595      36.024099263113548
    58   1      6.3808809789210397      21.701974621285729       1.830406604267601
    59   1       5.267377215325161      23.049146656510334    0.051889590017958807
    60   1      6.5572982847490549      24.356917655357559      1.9288022663116069
    61   1      7.6639899405774212    0.085036283472201116      36.030933558402943
    62   1      8.9626900998055223      1.2714756266740048      1.7606599905501872
    63   1         7.8544835597997      2.7731379374784746    0.022489049622515734
    64   1      9.1928811376841484      3.6844702204042612       1.833403851895536
    65   1      7.7240834735736774      5.3174635609750434    0.086068040762574918
    66   1      8.9235930545136721      6.2868025241561849      1.8230935476166696
    67   1      7.6867428680526402       7.720843003376042    0.051159794369607471
    68   1      8.8403496777975992      8.9345647228727092      1.8568682137767738
    69   1      7.6478979851610669      10.061238082710812      36.095280691645549
    70   1      8.7169696621790802      11.648404480232994      1.7926549372290661
    71   1      7.5881412453779777      12.776331295185805      36.032535072923189
    72   1       8.785350079218027      13.921858283009753      1.8807298172852145
    73   1       7.618096939167418      15.511123346423945     0.13753136394395823
    74   1      9.0134840503166274      16.497422433490549      1.8235671595088541
    75   1      7.4857866649064286      18.013491306317761     0.24548938593761707
    76   1      8.9534326753872833      19.047684258445411      1.8204779899324184
    77   1      7.6155916352597908      20.556652898676106     0.23778706358201607
    78   1      8.9992422406121957      21.764410265848095       1.994042696800534
    79   1      7.7515031195788779      23.084406628914483      36.093399236216946
    80   1       9.099554892966438      24.272331798126938      1.9243424983478368
    81   1      10.379439934900885      25.471413226250078    0.019012839790946152
    82   1      11.388805829031259       1.464940115024038      1.9193177173119707
    83   1      10.310178035853157      2.5636281923791842      35.944696066775244
    84   1      11.544065920394473      3.9463839905012841      1.7443510211976323
    85   1      10.293320051504343        5.22015060515219      36.063684097174253
    86   1      11.583616039316503      6.4703367719806062      1.5005326514156994
    87   1      10.163445511795112      7.7044593727109154      35.995505461938606
    88   1      11.176936122405808       8.850901390414128      1.7289476724241464
    89   1      10.014007727086959      10.267417395201436     0.13676974269816339
    90   1      11.167248445044669       11.43877038666942      1.7881543753792828
    91   1       10.07019883950988      12.884594860227665    0.030020663023242387
    92   1      11.448197228392557      14.350388378588001      1.9829030249946309
    93   1      10.113111752226281      15.439411988301698    0.077030309591770971
    94   1       11.29536906211681      16.653144748914848      1.8039857113930693
    95   1       10.10169907029915      18.046148403309733    0.079338044485246076
    96   1      11.427495506788643      19.023644208993659      1.8746266076637867
    97   1       10.08494567976031      20.464935195761129      36.084891261013226
    98   1      11.633204740660684       21.63771266271495       1.891726850798817
    99   1       10.21329159227524      23.086413538091509      36.095752654522691
   100   1      11.648268851194445      24.298557839610925      2.0305963805944995
   101   1      12.749909682551577       0.116940932078285    0.068478754420834648
   102   1      14.155215493072463      1.3804217561480656      1.7512911981488644
   103   1       12.70396359184946      2.6546979965579744      0.1250053672122361
   104   1      14.240578437131429      4.1480646825466607      2.0119134552596845
   105   1      12.945002669381173      5.2250004670882975    0.069504471206539659
   106   1        14.0773612696662      6.5911893468557023      1.8610943855064754
   107   1      12.477350546061976      7.8144149995859982      35.982316894457618
   108   1      13.741337224054909      9.0676255907154975      1.7017141701335063
   109   1      12.538097910154084      10.200412895311759     0.15250521410728188
   110   1      14.128801277692355      11.895703059671202      1.7520568194383814
   111   1      12.643440725616907      13.004243438804584     0.18543593960437191
   112   1      14.044523118321646      14.166910711329434      1.9590270814874216
   113   1        12.7199475636546      15.305286415716754    0.096843525772578751
   114   1      14.125740125132996      16.673317315766912      1.7990256400597098
   115   1      12.745235013178792      17.992715875773598      36.097388204679035
   116   1      13.906408903544333      19.249499913449416      1.8888940339195082
   117   1       12.50539411629086      20.571851728684507      36.096164741145223
   118   1      14.006328106620245      21.822634245733511      1.5700154290992259
   119   1      12.701865381242836      23.059099681488458      36.048785907491173
   120   1      13.800686538335428      24.367211853457061      1.8097340588082602
   121   1      15.299932210364547     0.13717474973837654      36.084435683164273
   122   1      16.469968669356035      1.5006069082369689      1.8542566860140584
   123   1      15.075896474646019      2.8950394770736492      36.093052741892784
   124   1      16.620808332188769      3.9130301048741165      1.9486527246167715
   125   1      15.394107791427851      5.2099398844379374    0.038630889385990366
   126   1      16.610101786131352      6.2882094106562274      1.9004421268248834
   127   1      15.251789201878202       7.626355372125829      35.997027695631367
   128   1      16.492689984349951      9.0052427963409478      1.5624655289558846
   129   1      15.282892909024406      10.326680740304495    0.062676259404622708
   130   1      16.709220838509808      11.664448206069736      1.6911622959429686
   131   1       15.14001035153461      12.931828209794496    0.065944807475125447
   132   1      16.369207035763839      14.048934529250214      1.7718796473067078
   133   1      15.083873548163224      15.505958705141563      36.063725017895266
   134   1      16.570056714757499      16.486511505119278       1.806041898589787
   135   1      15.228562937502371      17.991675453176907     0.17493588059619467
   136   1      16.662162070133558      19.337233653296011      1.6319992299239845
   137   1      15.306640918961538      20.560150450133367      36.063629242564922
   138   1      16.552616067607786      21.760297537638426      1.7950337987004563
   139   1      15.347754199250833      23.152038008635571      36.069698800974656
   140   1      16.473116065875733      24.344036081329989      1.8398886254321036
   141   1      17.774255614952249     0.14821161976115207    0.030773757207600748
   142   1      19.207308918134924       1.121971977098102      1.8431444731430811
   143   1      17.952526680742512        2.66917205842699      36.036345254654485
   144   1      19.131427766052436        3.62274523821318      1.7616502011451514
   145   1      17.845112541007445      5.0353740003284004    0.092870536400607911
   146   1      19.136608145253071      6.3356854628160502      1.8533141499227115
   147   1      17.871271070544491      7.6206275063142979      36.036318234032784
   148   1      18.947675027133158      8.6994074847122977      1.8949544460809633
   149   1      17.757458440795755      10.190398900207404    0.059610851006493881
   150   1       19.08740386139791      11.372283707187167      1.8246655460326564
   151   1      17.855118651879685      12.632244710388457      36.013652079890498
   152   1      19.015121533434929       14.23554570347914      1.6922058731912679
   153   1      17.586312310258137      15.398779277727389      36.029102527059386
   154   1      19.001156313351768      16.580333447693313      1.9654585182895072
   155   1      17.590715616824117      17.700382612905891      36.079894683602348
   156   1      19.166719356972365      19.122983971886338      1.8768821207863304
   157   1      18.042084677209736      20.550575869067028    0.014426183622651953
   158   1      19.196118452213092      21.653403087717106      1.7990964731373864
   159   1      17.881667954251341      22.958215518496488     0.10792771588808155
   160   1      19.296976105453439      24.205834080038461      1.8998282984462438
   161   1      20.614459212245428    0.079047402294428429      36.053983495720921
   162   1        21.6044591523261      1.2005851129318015       1.651892495686696
   163   1      20.346602877320379      2.4491408320521959      35.913685099460551
   164   1       21.55832199299693      3.8464060567695211         1.7757139535272
   165   1      20.205271191678861       4.945773960369455      36.016625270377425
   166   1      21.695368340570326      6.2757265477402342      1.8130282637754136
   167   1      20.416066091012588      7.6221132185071978     0.03545981989238952
   168   1      21.520157749978743      8.7607197252211666      1.8467196476853351
   169   1      20.380916169319399        10.2218534421322      36.091060030861563
   170   1      21.694204122401839      11.385822820331386      1.9667616782396515
   171   1      20.361933457214676      12.734168089122999      0.2276325875529665
   172   1      21.545804674160902      13.898190386772809      1.6541895502643338
   173   1      20.264046914395092      15.440173931098695      36.092226121519609
   174   1      21.519138631643742      16.611491662661891      1.9600456903584371
   175   1      20.180824459397595      17.914138996037213     0.20572237760367221
   176   1      21.710304112100292      19.155209298076247      1.9342729012065101
   177   1      20.572759639741804      20.338351649480995     0.14191693444084891
   178   1      21.930490538410229      21.646042000614049      1.7364021195871162
   179   1      20.472050308680146      22.791164907023834   0.0065022343670307382
   180   1      21.805828346682969      24.253951552191559      1.7572784894131817
   181   1      22.969517559297433      25.423613476949498      36.044289239062785
   182   1      24.336110561169523      1.1537426396367139      1.8749300974333114
   183   1      22.924854731434266      2.4660164050554427     0.15443644047680896
   184   1      24.125226001982032      3.9318051877472562      1.9330492526559959
   185   1      22.921832997335361      5.1217792594697267      36.032157387734728
   186   1      24.195501713501852      6.2800626457774937      1.7251616250154604
   187   1      22.877005930032652      7.6541057778651469     0.16209139045583945
   188   1      24.116162793498201      8.7100440824224439      1.8638690790290751
   189   1      22.736809972677747      10.107201105699056       35.94418924263509
   190   1      24.220112804562991        11.2222611214591      1.8172305858589435
   191   1      23.033880814079549      12.633761973835563     0.07691564877857221
   192   1      23.889593226289836      13.954621957090245      1.7173778685574594
   193   1      22.806100009822885      15.513646188279264    0.022048843383765886
   194   1      24.329759821310308      16.547491717681357      1.7672058630107248
   195   1      23.044411698776113      17.902497487859556      36.016899029297981
   196   1      24.110738706800095      18.995839963716964      1.7193794696306217
   197   1      23.106709852974955      20.532289516097222    0.043644514018706143
   198   1       24.58399168876899      21.665862221043476      2.0804630835693159
   199   1      23.189455646873942       23.14746445534584    0.013482970298196053
   200   1       24.36312561424236      24.151722283926734      2.0180260310739886
   201   1    0.081091912843777703      25.500187618393806      3.5042081667120768
   202   1      1.3540146913505682      1.3700508483964706      5.4899474387105034
   203   1    0.082665031682204487      2.6519380021844894      3.6964014181152169
   204   1      1.3996365143634606      3.9272850248907307      5.5172595330342844
   205   1      25.470225317258485      5.0998365606620535      3.6300533720151233
   206   1      1.4176488214870033      6.3227295175832214      5.3264766117031996
   207   1      25.316246034757473      7.4862331264617836      3.4999813255757761
   208   1      1.2795054808413995      8.8642036550600931      5.5058557436741129
   209   1     0.13748883153319122      9.9540173621662156      3.5160901757220118
   210   1      1.1008137871340677      11.424044853858915      5.5151096756677873
   211   1      25.372324416478257      12.746514652589555      3.6775709899619402
   212   1      1.2826351744617579      13.822427122136872      5.6123676383343692
   213   1      25.220088870782181      15.258470042125097      3.6159631427998074
   214   1      1.0957455688706692      16.584780261501635       5.187927073807356
   215   1      25.501122415000484      17.899170533012732        3.49786543174464
   216   1      1.2768995885304719      19.139086899802997      5.4123493027060485
   217   1     0.18239747498305259      20.436129406253656      3.8277431228441663
   218   1      1.4807982033707132       21.49086420772495      5.4907341682667887
   219   1     0.24700412954263093      23.094518252046395      3.8521696867281179
   220   1      1.4093584036325644      24.380475228944462      5.4235273347887434
   221   1      2.5979096515944553      25.513681669047983      3.6415869080449439
   222   1      3.7572168932843457       1.107781084798737      5.5136903671905939
   223   1      2.6291533467208565      2.3964241613904917      3.7442070762004622
   224   1      3.9359787572048419        3.80554795086735      5.3528035609151789
   225   1      2.4241857660945896      5.0844184252513918      3.6669572267558328
   226   1      3.9044227980114994      6.3315366677825677      5.5908698646313324
   227   1      2.4458027074955742      7.6483571715060652      3.4894099377809318
   228   1      3.7420194117458525      8.7203458868614891      5.4508768885240864
   229   1      2.6366047630609275      10.154389213878552      3.6914153978419368
   230   1      3.6341544307610225      11.140036632714416      5.4225188852351245
   231   1      2.4069504727814843      12.820497051095645      3.4416177110806747
   232   1      3.5758030954444364      13.898394003159163      5.5277423130849845
   233   1      2.5393063422427939      15.032302422426765      3.4748418413057829
   234   1      3.7801904429971818      16.447603202653085      5.5267387665293262
   235   1      2.5561771786436203      17.793535987937364      3.4921976837492497
   236   1      3.8775262485221158       18.89974021605564      5.4589238916145852
   237   1      2.6754874308003509      20.381402557338294      3.7171577309287387
   238   1      3.9839881121387086      21.587578822393073       5.360710480475495
   239   1      2.6297026638213823      23.037273621908103      3.6422255272535895
   240   1      3.8675289819735714      24.100901873464178      5.7174651039086282
   241   1      5.2358376106680993     0.19624889958424654      3.7248693647942623
   242   1      6.3746150744158472      1.3017700833987977      5.3732206205607183
   243   1      5.5039466762985887      2.7229878661714477      3.5256696492916051
   244   1      6.6044717735659422      3.9046618894303937      5.3855655973820715
   245   1      5.2607005824755557      5.1642774471629798      3.6365848959772804
   246   1      6.4565865426723628      6.2491010080436178      5.2740724322159656
   247   1      5.1970246700274778      7.6146650153566648      3.6572800959826903
   248   1      6.3851360602130187      8.6476240300206602      5.4741238000989583
   249   1      5.0377215571665053      10.041551709721618      3.4562777124107695
   250   1         6.1761344942487      11.356729032398567      5.3150032750331206
   251   1      4.8081741889896161      12.684757766895453      3.6616088566220397
   252   1      6.1782756772240583      13.868930719142217      5.4095428680893036
   253   1      4.8608511520717617      15.095007636998117      3.6136981881332297
   254   1      6.1405182356842198      16.586870978245638      5.2396921812729209
   255   1      4.9034927350935273      17.697121725084443      3.5419786874575143
   256   1       6.385819595105473      19.058926100867332      5.4904256863994298
   257   1      5.2468890438140106      20.359959507575113      3.7854653188784311
   258   1      6.6768214241074118      21.655697725096626      5.3693507897303192
   259   1      5.1132600464732656      23.130455181576902      3.5066511985012094
   260   1      6.2909824897315065      24.227582065805031      5.5429200407219872
   261   1      7.8835561410497457      25.375003586558208      3.6083399946760437
   262   1      9.0244875078113527      1.3267537901158688      5.2987176891343806
   263   1      7.7768279361509478      2.6208984978391183      3.5830387965600052
   264   1      8.9161105603512976        3.64130364510034      5.5892074034039227
   265   1      7.7886077491617831      5.0928600127854287      3.5332445113031334
   266   1      8.9919489862474293      6.3399296719216274      5.2888993011379259
   267   1      7.7862051426985381      7.6543470486384564      3.4882097197376978
   268   1      8.8763371300544396      8.9930385701114677      5.2608860475408914
   269   1      7.4058753743544967      10.163208247747514      3.7157446853987777
   270   1      8.7050504193070761      11.431394265043105       5.301690733913647
   271   1      7.4520966418084473      12.845754328135333       3.520832338613026
   272   1      8.9948154655235424      14.132516165417435      5.4619952997684571
   273   1      7.5890190125752186      15.282158379625766      3.7022874496015739
   274   1      8.8542913323808179      16.559389882037514      5.5454963901742023
   275   1      7.4990653415563271       17.78105189658778      3.6850646051121929
   276   1      8.8902419930194316      19.230362364894162       5.693949836476623
   277   1       7.846788586270069      20.269642043681447       3.548235532112789
   278   1      9.1046231238391915      21.936433999505063      5.3945908099677879
   279   1      7.8412205830483739       23.05184310966343      3.7554600277383221
   280   1      9.0312907491445849      24.303364693477469      5.6158272619591179
   281   1      10.383808630935569   0.0064562107330707304      3.6583008055264776
   282   1      11.503514933218071      1.2962729427865576      5.4504853080114204
   283   1      10.277660725941244      2.5945112992406489       3.894280674563217
   284   1      11.354330468168529      3.9876128713091865      5.3261336859284656
   285   1      10.284640309635126      5.2340281336388026       3.461649109303313
   286   1      11.592134039000957      6.4624773370641808      5.2179302982320319
   287   1      10.152216978120714      7.6863646459677142      3.7218950406824756
   288   1      11.374537065537629      9.1752995660816179      5.2942112919963789
   289   1      10.006036723688966      10.339855168189958      3.4818166588284845
   290   1      11.428226776106563      11.589156951034344      5.3002052651128748
   291   1      10.055089546146041      12.927327362378222      3.5793790146497377
   292   1      11.504900514777354      14.053861844989394      5.6453225138850849
   293   1      10.054256013243526      15.388785791898792      3.5669797016031803
   294   1      11.385729374163542      16.575034667385989       5.607404811938574
   295   1      9.8363048679495826       17.79810029608614      3.9292773428258947
   296   1      11.464897711605479      19.056548600309196      5.5468043632754558
   297   1      10.415433991396151      20.454574695054966      3.7482109193858952
   298   1      11.603681152071706      21.540716011689277      5.5374705134536475
   299   1      10.526459704698423      22.945235757939304      3.8015264958056352
   300   1      11.592014748951955       24.27237650774569      5.6132602368257203
   301   1      12.860445341131676     0.16359340751535398      3.6745978867116489
   302   1      13.806097749625939      1.6068480586714333      5.4085844191910324
   303   1      12.756951090860916      2.5144349399870629      3.2500628097314701
   304   1       13.95979537548884      3.9476746769212894      5.3778467767580791
   305   1      12.748776393212097      5.0856346493277851      3.4876420579648779
   306   1      13.850660828260985      6.3591660122226736      5.1720112158235585
   307   1      12.730521817738412       7.779509470877799      3.4764703025535044
   308   1      13.976684213979924      9.0537438574960802       5.372614528651205
   309   1      12.749487867183415      10.400170605395051      3.3563217330993895
   310   1      14.179573449412887      11.438351785680409      5.4393180078822807
   311   1      12.575272430864528      12.819246787448536      3.5624736169960882
   312   1       14.07830887487502      13.884839067534541      5.4590630741646518
   313   1      12.751984644508045      15.257564737858997      3.8290314336087028
   314   1      14.144156735333805      16.664798388102444      5.4491495916353418
   315   1      12.575278463701318      17.650245362825476       3.716890762091511
   316   1      13.930308883263519      19.103516648816026      5.3548920865324066
   317   1      12.754631207004699      20.271443777894486      3.6659988369483179
   318   1      14.160720489985254      21.741664297684526      5.4915032536668207
   319   1      13.157594876639433      22.828372298121025      3.6978337436690345
   320   1      14.161959976827314      24.264368580057457      5.3315255522854557
   321   1      15.312366949121115     0.19708328968933325      3.7420117267525601
   322   1      16.553410699743587      1.3441455949274013      5.4391515157453183
   323   1       15.29975412335658      2.7115587906412144      3.7669172921614851
   324   1      16.787514210894024       3.702122491024002       5.402835700761587
   325   1      15.379562230805981      5.2301409191367219      3.7996303886722513
   326   1      16.594827821609872      6.3028285710643956      5.7386195403398528
   327   1      15.479318033214144      7.5927757332891401      3.5457231068967889
   328   1      16.552112660926429      9.0297734463002683      5.4769409980614938
   329   1      15.264144452207455      10.073736109363084      3.4851716110479276
   330   1      16.645760879206389      11.536439194666858      5.4379691075817318
   331   1      15.245940743326656      12.748276675944917      3.6521874199126816
   332   1      16.506367878899297      14.068473509082825      5.3866387826088715
   333   1      15.362243352694664      15.365188617403547      3.6847035608750724
   334   1      16.552215360901382      16.726360373464022      5.5162783680285283
   335   1      15.378663506981608      17.896907679267713      3.6622525619369437
   336   1      16.603357138304244      19.359894526582515      5.3983457584829209
   337   1      15.174261933876407      20.437530389173485      3.6153484092753634
   338   1      16.765251045154603      21.790380099854353      5.3137320694792036
   339   1      15.433389338596784       23.22715520683272       3.638707150535712
   340   1      16.779784523047702      24.418862695317568      5.4108664474257129
   341   1      17.930192360806195     0.10880454394486466      3.5017971333766589
   342   1       19.16166689156092      1.3651108829524461      5.4745933268120837
   343   1      17.904687387626602      2.6909570379848544      3.5928330310759407
   344   1      19.339670705706929      3.8003848739173116      5.5525752011591329
   345   1      17.899731660075876      5.1205905287053639       3.789476991396342
   346   1      19.200261756707079      6.3170806386376883      5.5497124400815085
   347   1      17.680952032816158      7.4026586747509935      3.6690280383691887
   348   1       19.44668509119164      9.0764356972074633      5.4363148206769552
   349   1      17.752214908190844      10.073226692742018      3.5102358757139092
   350   1      19.259115916037672      11.574121220300144      5.3926228542805763
   351   1      17.977616652728344      12.711549070719283      3.4833334306687118
   352   1      19.063320644130474      13.897709067829618      5.3231087035088942
   353   1      17.783062087457463      15.253880416698806        3.63683473812717
   354   1      19.073873864009965      16.521325412344275      5.3194487475480496
   355   1      17.705036695438384      17.810794626050221      3.7318313534294933
   356   1      19.049426068420807      19.133474700196043      5.3565491611887097
   357   1      17.755735363136306      20.419944526785716      3.5646516704709255
   358   1      19.176889252103159      21.579152699028299      5.3652712844701949
   359   1      17.915408442881201      23.150822628339842      3.6843924177730751