dump/Mg_500_0/steps_1 (written by ASE) 

4000 	 atoms 
1  atom types
0.0      32.100000000000001  xlo xhi
0.0      55.598830921999998  ylo yhi
0.0      52.130399999999995  zlo zhi


Atoms 

     1   1     0.10449946978143668      55.286072510013305    0.010671773497842133
     2   1      1.5456535265617408      2.7001421679772748      52.060504995029845
     3   1      1.4407379930233684      0.7695368042288665      2.4461750847127606
     4   1    0.068284882285082019      3.5918566850808791       2.555351061972039
     5   1      32.039120988731774      5.4159123139446201     0.11274650177686861
     6   1      1.4109175193387948      8.0781261743337289    0.016522419371390162
     7   1      1.5202279865438861      6.3404645691065795      2.7142662277382543
     8   1    0.027553976321406302      9.1873449215996086      2.6885796960498936
     9   1     0.11815324487682881      11.333991005205283     0.13837441466530356
    10   1      1.4918140446247012      13.815319038650816       52.06573372860214
    11   1      1.8586629561024555      11.879751482113708      2.5822321753742292
    12   1    0.018464939750402812      14.864793910101389      2.5783403147291901
    13   1      31.784671865122199      16.623924773041718      52.044756143981026
    14   1      1.3534105579709625       19.50503025824122     0.17049940581125317
    15   1      1.3649138898982645      17.555469804779893      2.5413856574263542
    16   1      32.063889200068544      20.455989147671076      2.6431513580420916
    17   1      31.919806839896232      22.256378249643372     0.25142531233047877
    18   1      1.6401802733025654      24.818825880108168    0.059768880554828083
    19   1       1.567721385512358      23.211798242065683      2.6374632711542221
    20   1    0.074187430018959652      26.061469149957883      2.9203709158171436
    21   1      32.048341533986346      27.636245580976428     0.37613594875350687
    22   1      1.4352909438005386      30.483213030455762      51.921874104433684
    23   1      1.5490090888835115      28.472119644129542      2.9094618381211501
    24   1      32.093678157654267      31.365937982027631      2.5435632885957662
    25   1      31.894977783578128      33.486266993396704      52.073141050571969
    26   1      1.5831253145022575       36.22667241315672      52.004006167214818
    27   1       1.687465121615928      34.250522387348077      2.5740561065594587
    28   1    0.015425830983135881      36.947693160509829      2.7333526429968478
    29   1      32.048996167025813      38.996000821499265   0.0060615429192819748
    30   1      1.7627297316065955      41.941443678879367      52.102269161004301
    31   1      1.6999454116709123      39.674409085201205      2.5105770567998271
    32   1    0.089637270435119237      42.446787311311695      2.6232647952166039
    33   1     0.16980085936960718      44.437136363923486    0.019418377080193019
    34   1       1.630610408833107      47.406532299453367    0.067212510078260318
    35   1      1.4587209749643437      45.284829953262175      2.6492501388247507
    36   1      32.023084385838956      48.165196443075956      2.7127544464146913
    37   1    0.074925940365486443      50.084767727079615     0.21228085557453807
    38   1      1.6659570998638793      52.674139093181921      51.879644484499366
    39   1      1.8632978188861709      50.871283072556878      2.5163591008948232
    40   1     0.24686900421657243      53.421143032605144      2.5167389456063258
    41   1      3.2923526015752351     0.15553732532588743      51.840110576966431
    42   1      4.9193198751433265      2.6468214235335283      52.119208514117361
    43   1      4.3493710469500551      1.0315033484339589       2.559252978551418
    44   1      3.0813801112055335      3.6753484243889027      2.5062102274959455
    45   1      3.2294549818880238      5.3183874289964033      52.067729692203415
    46   1      4.8937484631630577      7.9783935900059753       51.98232371975228
    47   1      4.7255464350126717      6.3171523059704713       2.363781462327089
    48   1      3.2297289822875639      9.0776252765272876      2.4380045110217403
    49   1      3.1635874441350484      10.950112726561006      52.079145714462804
    50   1      4.5330119033039944      13.958320679832513      52.011559154134488
    51   1      4.8138078583194082      11.976890887263576       2.598981712038817
    52   1      3.0679237664188355       14.77515452719855       2.547698695046023
    53   1      3.1715182362275525      16.589250845964521    0.079865075483061931
    54   1      4.9408916143237205      19.584135419210256      51.992279438484019
    55   1      4.5316584711430163      17.592534195315526      2.5038488306564513
    56   1      3.3410979273705492      20.641537247409726      2.5095922295777267
    57   1      3.0233940413256639      22.237078932517644    0.058773982256075365
    58   1      4.7274531828276745      24.855474834725801     0.12821185844349567
    59   1      4.8156568753328584      23.181663612497648      2.5786988432278934
    60   1      3.0763816494470499      25.645614516864747      2.8164776677545098
    61   1      3.2472989027861336      27.581407909615251     0.21531702037552439
    62   1      4.5784359218594641      30.356842146490795     0.14253632976590971
    63   1      4.8985634074764572      28.520702002712728      2.8794565351480794
    64   1      3.2230988346650182      31.301619383747862      2.8875503876706694
    65   1       2.833228341387648      33.396034032919417    0.014406538899917647
    66   1      4.7483945674279155      36.119931565379979     0.18868307774101661
    67   1      4.6663593833173547      34.280120564241834      2.6714696340336643
    68   1      3.3037892028663349      37.172442673236006       2.695743823809476
    69   1      3.1993633043171412      39.027856821781803       52.12846975141283
    70   1      5.0065433982847924      41.708164547502989      51.982292149732778
    71   1      4.9112471056136471      39.720295726263821      2.7410388887002335
    72   1      3.1122439124269854      42.647412168079683      2.6596904299250155
    73   1      3.4312006658632681      44.553325508549854      52.058905899338932
    74   1      5.0003160569272849      47.257116100950633      52.086588669685234
    75   1      4.9769006333789019      45.171061092903336      2.4996301626086104
    76   1      3.1864083422180705      47.811619901554039      2.5553643173906622
    77   1      3.3575241989194242      49.932248057619582      52.068315975211021
    78   1      4.6274001040635691      52.719144480072075    0.012151320706388666
    79   1      4.7494126637302072      50.644758943925403      2.6054566798382317
    80   1        3.12971966957861      53.609280420472686      2.4815386893214457
    81   1      6.4061047330545291    0.092820960757231438     0.14478575568488478
    82   1      7.9754255040380686      2.8733852483813109      0.1196189067367667
    83   1        8.02356853162647     0.90061892076627448      2.2656375185683064
    84   1      6.4356809484413287      3.8589915072398018          2.339460115224
    85   1      6.3382867155381986      5.5607606029547023      52.078762174286709
    86   1      7.8569862711113627      8.0885454471783742     0.15356687428834068
    87   1      8.2558629749968482      6.2261436855693315      2.6876803500984545
    88   1      6.3888927268144542      9.2123850857597098      2.4172867792089483
    89   1      6.5499126288054814      11.103112488732512      52.076176139771079
    90   1      7.8335649113409573      14.088310134770932     0.14836110032883881
    91   1      8.0959595241313504      12.225147650860231      2.7240335557278383
    92   1       6.117628809241717      14.758629092073411      2.8080268407906153
    93   1      6.4175728780499703      16.419132714840941      52.081704479994443
    94   1      8.0542703375610483       19.34842114062506     0.10144928428720425
    95   1      7.7531818159357666      17.072013195650214       2.681167131340997
    96   1       6.410786638766611      20.334288962618487      2.5492700089294229
    97   1      6.4208880674251594      22.110731797965368    0.077698222201356665
    98   1      7.9068070268411041      24.975253997954152     0.14939492244352992
    99   1      8.0421313042011082      23.156257577911745      2.5973573632291851
   100   1      6.3038293602143822      26.013994174308699      2.5806279645930319
   101   1      6.4507288852403164      27.701991267446882     0.19634810351418189
   102   1      8.0037084347545857      30.515189200923473      51.959138294684792
   103   1      7.9805596848144527      28.642939150260908      2.6257801828409284
   104   1      6.2967870472795573      31.255685333540111      2.6144711818541206
   105   1       6.155743550543451      33.046796631528103      52.047757369364305
   106   1      7.8466862628879985      35.943062375326903      52.052290465890152
   107   1      7.8494005081393015      34.004574716697157       2.524223336149491
   108   1      6.7766566663779191      36.992667706202568      2.6848052307632781
   109   1      6.2565215711575108       38.94473406215355       0.121357091069108
   110   1       8.026911589086831      41.691689104344512     0.12924192176851623
   111   1      8.2599222391888745      39.713546779972809      2.6397960500402546
   112   1      6.2200931403391451       42.18960168938392      2.7402153693889306
   113   1      6.5140381329025656       44.45154362811148      51.860304119551067
   114   1      8.2431888433285021      47.104089308912037      52.108961418740357
   115   1      7.8177116954381862      45.142317947816927      2.7787374660816457
   116   1       6.370240284476747      48.204947131749428      2.7849198645995514
   117   1      6.6367956529768541      50.039187694726934     0.23091030552216255
   118   1      7.8530559556860169      52.767414314819469      52.104123129413942
   119   1      7.9731697238122248      50.876650347437192      2.7169635463595019
   120   1      6.5501254724581068      53.717741069154293      2.5060146639390792
   121   1      9.7039731247501226      55.385361525294861    0.095200270543356266
   122   1      11.182993047255854      3.0895649679670996      52.087350849558995
   123   1      11.701329711976873     0.97190973920849943      2.5123144541053932
   124   1      9.5419698413674201      3.6434710097882141      2.4624081209996151
   125   1      9.5450805326732642      5.6544637777631692      51.982176110443824
   126   1      11.224455513635577      8.4290671556845034      52.051237432266774
   127   1       11.29925578383736      6.4742202681299146      2.4847125529960734
   128   1      9.7272537859789576      9.4268545543744118      2.6416824398050704
   129   1      9.4821458823053266       11.39431563534322    0.099330076134457254
   130   1      11.383267672363914       13.84408739712951      51.972783818480565
   131   1       11.18057524158491      12.178151660982708      2.6273041274106301
   132   1      9.7658620051167091      14.933958336721021      2.6155179142375817
   133   1      9.5559198383669326      16.614708122927667      51.881955820409821
   134   1      11.341384517109956      19.556699829707686    0.022630822567895195
   135   1      11.389614201249902         18.000467155427      2.7678922317746073
   136   1      9.5378892273248024      20.331846960183007      2.5900360889798488
   137   1      9.6678889371761727      22.241484321412166    0.042637455055714056
   138   1      10.939642811935709      25.317640577649442      52.018108002046326
   139   1      11.104148207346546      23.196328186580207      2.6602584268591283
   140   1       9.650704266884345      25.845425758041237      2.6354138718859099
   141   1      9.4883539953020026      27.814824468116729     0.18797837120915328
   142   1      11.236683696503908      30.495104608310726       0.022583481168202
   143   1      11.331298898220307      28.672224381395363      2.5367386829615519
   144   1      9.5569777055538037      31.192522121588411      2.5517780507788794
   145   1      9.6073715278849576      33.266053308510571     0.05258198390444483
   146   1      10.985782744052512      36.152854982068909     0.18725848457321104
   147   1      11.244320832063179      34.408755445219228      2.6551113345445883
   148   1      9.8179217049499758      37.375955494308528      2.7664157853615934
   149   1      9.5988281866085767      38.910217874478363      51.801809715991261
   150   1      11.173090012213319      41.619760341176487      52.110218385463789
   151   1      11.180665512997644      39.931614512618765      2.4716940771124642
   152   1      9.5287929501491462      42.570793912194006       2.438837114794818
   153   1      9.6487959917298411      44.332705663322642      52.128762083348256
   154   1      11.520029499041675      47.014431934731356    0.062999594929042238
   155   1       11.16093163980055       45.56618476286932      2.5339247369666831
   156   1      9.5734866272546029      48.008016774451363        2.52306865801539
   157   1      9.6373795011388168      49.860880195852658      52.013797183488279
   158   1      11.596910332019894      52.678183606889867      51.927998228326594
   159   1      11.078472482173114      50.761303212088706      2.5081349208286978
   160   1       9.757259663098715      53.405060627534183      2.2548069572964833
   161   1      13.064295267960945      55.447476589828362    0.017803953743971489
   162   1      14.405757814874654      2.8264995829834527       52.11778608028748
   163   1      14.680061043271674     0.70502695117277725      2.4582031645006488
   164   1      12.815056501014212      3.8673330293227313      2.7177031919445778
   165   1      12.812443214121876      5.7313688845092967      51.967220204327788
   166   1      14.475905115748594      8.4161380239372168     0.09445755720913894
   167   1      14.568138311736003      6.3117714243430578      2.7040114330297196
   168   1      12.991791584948476      9.1195686524415223      2.7826144454861805
   169   1      12.799233636792902      11.165152222311608      52.044240679651423
   170   1      14.741726668101666      14.128184171698663    0.051023629094872562
   171   1      14.518134217536142      12.105835182234982      2.5929179097682717
   172   1      12.949796110179639      14.946030743512463      2.6800384513687758
   173   1      12.669844551069092      16.824763025145142      0.2019538473530246
   174   1      14.304499332358825      19.638586434095249    0.017837562869681543
   175   1      14.635051256486115      17.667047562093924      2.6946645672068525
   176   1      12.959403217572259      20.726292570330148       2.704330139580855
   177   1      12.683784536229723      22.340475323853948     0.10541906338627692
   178   1      14.042851681913197      24.932748483274441    0.041338686529075679
   179   1      14.418346178684168      23.268924693444621      2.5574210354858598
   180   1      12.762339252980665      25.994781824364175      2.7343723444121024
   181   1      12.739707143347124       27.84602587336499    0.021697021974940188
   182   1      14.239210107790241      30.801718081687365      52.024832092110557
   183   1      14.396255724346046        28.5105942258444      2.5001193941149604
   184   1      12.978788662095596      31.298860847873652      2.6493685347787581
   185   1      12.762827597586112      33.569340192222775    0.091056221597140788
   186   1      14.412550184149469      36.078698198300387      52.009988224738372
   187   1      14.436066360901442      34.275063856247975      2.5195165597517377
   188   1      12.899972688528555      37.130768253284728      2.3768920050529605
   189   1      12.864692786804563      38.936095062449255      52.096821884814403
   190   1      14.495942407005428       41.44933540554814     0.22190641920235063
   191   1      14.206265638034278      39.847159307142789      2.8199009485630273
   192   1      12.697792037727416       42.73442012254587       2.758701360280575
   193   1      12.702674598661977      44.303511741152221     0.10373666039821974
   194   1      14.629212701469138       47.35094903524427    0.094343161966180894
   195   1      14.253542516986508      45.407258720066146      2.4880378778184697
   196   1      12.653992411961045      48.169127438287568      2.5842400167401953
   197   1       12.88389450073538      50.007037972845815     0.11866351975782141
   198   1      14.582524695923947      52.959157553173206      51.812550838628084
   199   1       14.34896762471951      50.766993459608429      2.5390386128599349
   200   1      12.925349354200328      53.662348749822655      2.4082005352134117
   201   1      16.178926842769744      0.0120619066182426      52.117907867070052
   202   1       17.56352911755879      2.9559793229141755    0.085762083668135217
   203   1       17.90856547862613      0.7555038700971245      2.5536858662374713
   204   1      16.144598025876309      3.5767570062347516      2.8343632494985602
   205   1      15.999480201478192      5.5616113527870858      52.128021617832239
   206   1      17.682513017189606      8.3684564056361079      51.980505197577308
   207   1      17.861004514838999      6.2165433053454411      2.5052547168241794
   208   1       16.12628151748882      8.8880205181387932       2.463123467591565
   209   1      16.200389372562491      11.007425803726406      52.113723285231451
   210   1      18.008876439067148      14.149454348007218       0.177812128702969
   211   1      17.683315521307676      11.805056034667325      2.6516121368939842
   212   1        16.4098829886297      14.849966034017664      2.7588986007046183
   213   1      16.242601931430837      16.762750958714392     0.20114200035103957
   214   1      17.675020310290421      19.476692805664097      51.916344454299711
   215   1      17.702988939115002      17.961704290590109      2.5389773570281129
   216   1      16.142951264743868      20.620878920422555      2.6615752353241033
   217   1      16.046367198431685      22.112291234435936    0.084991737898917188
   218   1      17.688182393343382      25.034470887012056     0.18434800993426553
   219   1      17.420189400166507      23.089458982238437      2.6099274625796181
   220   1      16.033710845617975      25.698675000364613      2.5521606808635862
   221   1      16.034672148654362      27.323832484070046    0.018574062427870675
   222   1      17.867582762277262      30.261077997317489      52.060241555162236
   223   1      17.674391041566263      28.335945032148263      2.4178355880679261
   224   1      16.210613757580287      31.304554800242602      2.5254417749736047
   225   1      15.948476516963121      33.305108030590802      51.983505867329683
   226   1      17.708245346081885      36.366818756011568    0.017813129195923278
   227   1      17.567146675032586      34.396231910669087      2.2547576392948376
   228   1      15.944845056084784       37.13727907127722      2.4768176902107197
   229   1      16.281148767449007      39.141101865260566     0.23518200071468556
   230   1      17.738584218730086      41.528513761686149      52.103354176399478
   231   1      17.577947229502218      39.908139630108543      2.9829851521712198
   232   1      16.013453850843959      42.827741073750872      2.7693989605980844
   233   1      16.077946424362469      44.453346570133277   0.0067319037394446089
   234   1      17.804916623361802      47.270187068720652      51.904382953704385
   235   1      17.572520254391108      45.411551333683164      2.7595015612693041
   236   1      16.186224295196098      48.124892482659256      2.8309616170439393
   237   1      15.951704474109443      50.423872018607099      52.089202400120946
   238   1      17.868840415787918      52.896249327986844       51.88103106304473
   239   1      17.697925566522184      50.908868408218417      2.7233658787355335
   240   1      15.948472989609645      53.424575598411693      2.4158414968681683
   241   1      19.274018703812835      55.540782547955189      52.034257347662965
   242   1      21.101689936638255      2.7943800911362566      52.093947587291822
   243   1        20.8319505854904      1.0622420255865135      2.4405438147609821
   244   1      19.337591660006744      3.7072796149299547        2.51464882004188
   245   1      19.276034988493389      5.4203693211556034     0.10569802889897915
   246   1      20.736414657919976      8.3444306481118211      52.118464313254115
   247   1      21.051172455824339      6.4242354714147618      2.7084040425647302
   248   1      19.192915586279572      9.1647949469087688      2.6105962247570162
   249   1      19.394412217623135      11.254388730972268    0.064445792523226506
   250   1      20.870987019044488      13.753308341620656    0.072132483712796527
   251   1      21.045208431007485      12.131909013808361      2.6138736271950433
   252   1      19.604752876211485      15.310505181465617      2.8258633086193661
   253   1      19.498070886814929      16.970316557930978     0.05464065592072289
   254   1      20.859239559126678      19.676808891469332      52.027882608363797
   255   1      21.040763850405892      17.850810256277853       2.337120392406244
   256   1      19.294818790491703      20.311711666068618      2.4371364267111653
   257   1      19.169334869872017      22.439380243206152      52.094866920583492
   258   1      21.071138106335468      24.863865836944125    0.030052985421452266
   259   1      20.810640135032287      22.944044655437015      2.4183203406092066
   260   1       19.19441860534381      25.648145416984377      2.8407580196032112
   261   1       19.32814877925442      27.311042614569125     0.21993731681538159
   262   1      21.149064677047541      30.786570985763461      52.066362544540574
   263   1      20.656221731745976      28.663564248492975      2.4340251277270077
   264   1       19.13241180313366      31.265959699513516      2.4886595910768632
   265   1      19.272948854781752      33.416975208433158      52.030052212443252
   266   1      20.689583521546755      36.089566176094671      51.984008053115282
   267   1      20.472872463664899      34.071732604271311      2.3322115364220446
   268   1      19.344491798023661      37.176704737988864      2.5641350260912295
   269   1      19.277900307999701      38.811082024884875    0.022015602302624018
   270   1      20.753244159620202      41.521383109267411      52.048080717682573
   271   1      20.973924838315757      39.797218947721532      2.6889576157796125
   272   1      19.267171963457162       42.49172448468218      2.5362737714164316
   273   1        19.3528107984183      44.501998243891663      52.102604618678669
   274   1      21.051230943533398      47.068075935715726      52.027956432212584
   275   1      20.792229189998245      45.366951842618924      2.6693480765588449
   276   1      19.314047018461132      48.370864731734642      2.6527408991680757
   277   1      19.347573141043412      50.035525100184778      52.097783205341798
   278   1      20.927196872503142      52.756504241974774    0.048112173583870578
   279   1      20.786953288363065      50.920695413682445       2.664877070932135
   280   1      19.279804718878395      53.702258319615297       2.592608841964521
   281   1      22.409911863769459      55.307212169136825     0.12510560734857687
   282   1      23.897757341745518      2.7129817511313394     0.15588611228615362
   283   1      24.043448186672059     0.93773323007941245      2.6040133405018473
   284   1      22.533452641792159      3.7030426531314169      2.6053721571676953
   285   1      22.547733293435261      5.6873969353831111    0.053181862170335957
   286   1      24.165646781862758      8.2729326924233639    0.038337249672008675
   287   1      24.295019356748853       6.448099325313259      2.6216725574751591
   288   1      22.649473879548278      9.1723336525813863       2.535443462820552
   289   1      22.428971993268618      11.042990523601834      51.897644126073821
   290   1      24.014900942103004      13.849247617819584      51.924667459262778
   291   1      24.247737738845196      11.993687143541214      2.5470637184215126
   292   1      22.797110571880552      14.755181958977351      2.6315933527582644
   293   1      22.628971746914395      16.659863318354233   0.0092450660308489967
   294   1      23.798508413754401      19.295104743065124     0.08403797099903515
   295   1       24.13912249807596      17.798164192542728      2.7460428897243316
   296   1      22.436930827622387      20.419624831266962      2.5795079629841884
   297   1      22.447322430015607      22.178529403176775    0.042477229313400033
   298   1      24.119636834989354        25.2394585672135     0.14745771518532289
   299   1      23.943426864500605      23.284265601556591      2.8605355154596035
   300   1       22.39302934854928      26.094940831931417       2.412303836089384
   301   1      22.325188279666754      27.686190731719805       52.05127684862267
   302   1      24.322699338590713      30.743253163435231      52.115670738265912
   303   1      24.138499949906212       28.78917302615444      2.7513197314780418
   304   1      22.358412095098153      31.701376425536008      2.5634852910596968
   305   1      22.779770679417794      33.579784748020757      52.122473850439327
   306   1      24.337211374425539      36.093211633666755       51.94926000130706
   307   1      24.280916979172044      34.517905165831557      2.6415163248714855
   308   1      22.587374112615734      37.041042860715457       2.263555278757666
   309   1       22.20089512268224      39.094610348985896    0.059453190944599832
   310   1      23.867448497997657      41.787094634927158       51.94559947666221
   311   1      23.881480405170901      40.052846860813908       2.823531957608771
   312   1      22.437959779642313      42.463792089147212      2.4452872165615802
   313   1      22.375409486931023      44.345291577698198       52.10741915494112
   314   1      24.181806848127813      47.234896642827309    0.088656055725161262
   315   1      24.248964287102357      45.367620595136415      2.5932596959150152
   316   1        22.5823457889766      48.280461584112864      2.6753738098339213
   317   1      22.313352335279333      49.970689427582371     0.07559493561029583
   318   1      24.225109866724477      52.738626259860389      52.008960353181294
   319   1      23.999263404936027      50.916286684405485      2.7426945970453271
   320   1      22.320833051718189      53.654217201166361      2.4967789813936014
   321   1       25.56288620651145      55.250269489441202     0.30200115244346065
   322   1      27.353984229907876      2.5822206658142597     0.13286892942758893
   323   1      27.277884172475151     0.93281181822902515      2.7743423532411926
   324   1      25.820672280338155      3.5391691930570808      2.7030724026501511
   325   1      25.739952464993586      5.5435378007939171      52.056821814685172
   326   1      27.377452503802953      8.3442211929826886     0.20918566698349647
   327   1      27.422363254567102      6.2208738899898313      2.6605354358727107
   328   1      25.816907754163534      9.2540586597656613      2.5489168159705131
   329   1      25.891020558982188      11.209048489347275     0.16912499836171271
   330   1       27.22878033347223      14.011400929019675      51.995532689496812
   331   1      27.288760302168782      12.195362008669349      2.7599927695731798
   332   1      25.753999411215421      14.856415111356025      2.2706269030963875
   333   1      25.491637183636033      16.637950832579691    0.035311749069904003
   334   1      27.121685902814338      19.562310315062728     0.19396957416672325
   335   1      27.232853821094611      17.660070615821628      2.5977814713857343
   336   1      25.667228109941696      20.629602816115508      2.7367347563197941
   337   1      25.538874577630089      22.391098584976671     0.18869168659793348
   338   1      27.350043980195981      24.999046204035395       52.11458332292711
   339   1      27.315080218700803      23.142811208776365      2.7133864629041744
   340   1      25.996819031038161      26.094749190824395      2.5937040962315345
   341   1      25.478145000592868      27.992971096635465      51.858724777113878
   342   1      27.227732841843753      30.923204117642555      52.031064904065133
   343   1      27.057629235839624      29.098998182955381      2.1869041535583027
   344   1      25.445543124269719      31.700380644387341      2.7822700709525843
   345   1      25.806593035854679      33.618473232604096   0.0038137333634295817
   346   1      27.601479222534103      36.180191685311499     0.15196818003755444
   347   1      27.282605219635983      34.495542485104814      2.7091105060253979
   348   1      25.764972999222643      37.077805376261274      2.5876235316602951
   349   1      25.742709404632702      38.696554204383965      52.107045248362262
   350   1      27.107785253072567      41.424394296244138    0.033309605296081853
   351   1       27.09411054659726      39.607213194660382      2.7688937913387455
   352   1      25.740408309824062      42.315220964810266      2.7439009397650747
   353   1      25.599181545889589      44.457473641909807    0.010810849586849407
   354   1      27.485750097903672      47.099892441322467      52.051971924725038
   355   1      27.418406454571659      45.297863501474154      2.6522456826205203
   356   1      25.816078581628489       48.22429228979712      2.5396169512098377
   357   1      25.965203119658565      49.952797860717546      52.043264951328148
   358   1      27.475605460204459       52.54091985912698       52.10044725465626
   359   1      27.515133357410225      50.798493537732931      2.6354066638734763