dump/Mg_500_0/steps_41 (written by ASE) 

4000 	 atoms 
1  atom types
0.0      32.100000000000001  xlo xhi
0.0      55.598830921999998  ylo yhi
0.0      52.130399999999995  zlo zhi


Atoms 

     1   1      31.853616144328676     0.11599605829370725     0.11213036686270263
     2   1      1.3589332435771881      2.8318267834959667    0.059974727554065091
     3   1      1.7266121237498733         0.7868750925429      2.7757404098150071
     4   1       31.89517074842114      3.8403125188374712      2.9736061451200038
     5   1      31.954186564355108      5.7905228462420233      51.935899446810851
     6   1      1.5858408437035119      8.1778237555284541     0.05706557337201007
     7   1      1.5292502402747683      6.3629744843405733      2.5193396340025962
     8   1      32.056270946559813      9.4138458969509031      2.3919756100607663
     9   1     0.26951310707301379      11.337178606619842      52.043354268039387
    10   1      1.6109903068102565      13.903204404102036    0.022970169309155717
    11   1      1.5557361715981182      11.905820609712976      2.7146040866393433
    12   1     0.18293316111951397      14.675281942778454      2.6035682155353905
    13   1      32.042002322304825      16.571209976124162      51.831661268805938
    14   1      1.6044979775328583      19.295790198309923    0.058955694628852716
    15   1      1.5413149345322965      17.466599225923186      2.3942109553970554
    16   1    0.071266134176802456      20.331670575218723      2.4407229329922315
    17   1      32.065288723336884      21.969431202958745      52.072983843249247
    18   1      1.5526272904233736      24.651927862268156      52.079304884057109
    19   1      1.5412107429499671      22.882061065299904      2.5170164581269177
    20   1      31.993489079381611      26.113711164587155       2.589995248852655
    21   1       31.97423356575192      27.628738765333377        52.1107574881432
    22   1      1.3174163864904249      30.418375964806366      0.1597009709099419
    23   1      1.3454698515902923       28.66747686811873      2.6343881432976728
    24   1    0.054759113220406788      31.664254711890798      2.6559589071346545
    25   1      32.042673249938126      33.438769730829037      52.090062770926686
    26   1      1.3803264374900948      36.259738223759761      52.087083056508241
    27   1        1.51080203001641      34.422940219631521      2.4816031217670265
    28   1    0.044339894506836147      37.210952197580582      2.5562866001377222
    29   1      32.055904051571019      39.075740959558843      52.040784960211866
    30   1      1.6259518837313558      41.720385446917263    0.099528949249236331
    31   1      1.5365498358205787      39.659388733840856      2.6356160045326735
    32   1    0.051600476498927461      42.526465166507904      2.6994258415388015
    33   1  0.00013953525732996296      44.671935357666776      52.031577931125767
    34   1       1.577434633789921      47.566869706795089       51.88813398294193
    35   1      1.3019447155389043      45.423238527827102      2.5088328913911373
    36   1      32.056456000896581      48.222494599906717      2.5547537729167926
    37   1      31.860784595660391      50.354313400122606      52.005731440285679
    38   1      1.7575665912325078      52.897075593095153      51.994853349333908
    39   1      1.6627089175155489      51.097747153145463      2.5455232027116783
    40   1     0.10993476401808169      53.688458447723988      2.5667590457832716
    41   1      3.1425531873270236      55.597760839532697     0.37873020971604271
    42   1      4.5673214780019116      2.7080959499176291     0.20338675359597291
    43   1      4.9226057391576088     0.89178772944005702      2.8033195834304108
    44   1      3.1313893572002023      3.4291312983831936      2.7932367387848265
    45   1      3.3090874271769284      5.5116572629132632      0.4081856512824999
    46   1      4.7598918583093042      8.4368446063814915    0.095629059866680688
    47   1      4.9835698523900156      6.4724688323873876      2.6046996916671219
    48   1      3.1913041453683255      9.2123516264577656      2.4177667790678901
    49   1      3.2464535437746616      11.296596839854434      52.094853717949597
    50   1      4.5839899307093175      14.003603157322939    0.032820257973281516
    51   1      4.6603226865477438      12.122318832714249      2.7472126283352942
    52   1      3.2433544385486037      14.993260660367678      2.4571558370747622
    53   1      3.4159831541556809      16.846908699065306      51.917796537787034
    54   1      4.9401351244522687       19.43598019289016     0.31959107652657204
    55   1      4.6808378062422626      17.838078405035127       2.721658472628016
    56   1      3.2627452543202624      20.197015895348649      2.4896891023387266
    57   1       3.387420502380885      22.149847611794385      51.883027873901256
    58   1      4.7232980733519296      25.142849607454075      52.078058363782553
    59   1      4.7850031951172349      23.082882061234532      2.5896836765107407
    60   1      3.0442738641634288      25.622422488588747      2.5693128109743113
    61   1      2.9858031457992795      27.565215519918063     0.04571038808917139
    62   1      5.1653280531364807      30.297656190251079      52.036749781251373
    63   1      4.5053359484258477      28.960281060758142      2.3075124811904288
    64   1      2.8861612037058682      31.204763690022418      2.4186223669422322
    65   1       3.352816261754807      32.871315469163129     0.17603452535668598
    66   1      4.8433805837549144      35.829686328791645   0.0069291345091484994
    67   1      4.6447195416964329      33.992999661484959      2.5528973024966528
    68   1      3.3994606413214008      36.820949254798222      2.4763321688964131
    69   1      3.0185197931813845      38.715300871707001    0.086827685083284617
    70   1      4.5390378423008446      41.873730154247333      52.021036904764593
    71   1      4.7687404134382509      40.128099733039356      2.5930669430199043
    72   1       3.291138672166849      42.697045689072162      2.8835381303012464
    73   1       3.020701658818838      44.900222884935729      0.1481588443507689
    74   1      5.0256133139909656      47.471691814786169    0.080629833004803531
    75   1         4.6419487535755      45.613618458763561      2.7092953653733085
    76   1      3.0867021016216358      48.105626672538996       2.822206738873398
    77   1      3.1385811409927249      50.225273264506832    0.027268878875568774
    78   1      4.6710566597891052      52.973666708321829    0.039667215791392658
    79   1      4.8957783423709715      50.861064768239871      2.6928404329863835
    80   1      3.1911015832012164      53.629369560650019      2.6575023479062496
    81   1      6.2480714486054385        55.3087231428389     0.16302690571557452
    82   1       7.682287584575799      2.5220095025122613      51.993653647862651
    83   1      8.0947196747652903       1.073253636612314       2.676119754116423
    84   1       6.355702171317108      3.5629273431222845      2.6597401530056892
    85   1      6.4139942929141478       5.257574381801855     0.15405729196210322
    86   1      7.7929342482087085      8.5528490480697776    0.065959080900801256
    87   1      7.8242990910424739      6.5128355692631059       2.412008177006074
    88   1      6.0250876444838317      9.4715080931568263      2.7689365619890332
    89   1        6.15919603374671      11.279445015810076      51.949971198011021
    90   1       7.778727145281402      14.056032544313821     0.18195510824054237
    91   1      7.8354483357090237      12.007601591591232      2.4758495247929728
    92   1      6.3351059760801816      15.106913182945418      2.6365929106076704
    93   1      6.4970273071647364      16.630354542670368      51.870332876061966
    94   1      7.8818592674727608      19.598920638882131      51.973395982055607
    95   1      7.9236383691371888       17.63719847358502      2.4567578990919952
    96   1      6.6054964328848733      20.552537394901449       2.690925980460475
    97   1      6.4588549674926377       22.25156215539678      52.085108655963126
    98   1      7.9923920294161697      25.249405163163786      52.048908584398639
    99   1      8.0526590891632512      23.283784005113684      2.5253761583163694
   100   1       6.325043424986073      26.126001847147439      2.5234471383424868
   101   1      6.6151651931386093      27.743868995735717      52.107897865250095
   102   1      8.2509989829751085      30.545699363141011      52.032685718535042
   103   1      7.9201528174482636      28.895246305973572      2.4300816852011864
   104   1      6.2175875060848949      31.630463499097303      2.3852893829736166
   105   1      6.6525837153199188      33.224571628047684       51.96020995216184
   106   1      7.8553114944017306      36.103799134045353    0.054532093952124577
   107   1      7.7766413446439753      34.320876002573733      2.6723669776738235
   108   1      6.2785802143087377      36.932950000074385      2.4927881326080308
   109   1      6.4076983335071107      38.726033747578711      52.033600208047517
   110   1       7.551281859138145      41.653934152956452      52.095197519280084
   111   1      7.6386122309226643      39.936205929909434      2.7155147163146331
   112   1       6.419591827305239      42.491415613814006      2.7095416877448932
   113   1      6.3055656607515393      44.511242259737784     0.26897603513481344
   114   1        7.94530569225698      47.271082596996123      52.128145137280363
   115   1      8.0722991742101318       45.03941240195924      2.7116124310807379
   116   1      6.2344852672825963      48.240903219995204      3.0006856788492939
   117   1      6.5888313183268696      50.274955184345004      52.094292540928429
   118   1      8.0291800184985007      52.867861104119541     0.26814440288763514
   119   1      8.0661361695351008       50.63492253819981       2.747798676408904
   120   1      6.5561121495302865      53.597251021260931      2.7247567196042701
   121   1      9.7796135878887007      55.592098219915123     0.20730886661576736
   122   1       11.09954431944338      2.9041204372940315     0.10816560382141824
   123   1      11.262150776007859     0.92320720706479287      2.6920182184859089
   124   1      9.5481073219404369      3.7835255330866757      2.5664815619945469
   125   1      9.2116794533298307      5.2691220986892855       51.92282491208752
   126   1      10.824794457161618      7.8073263274028468      52.063788844648833
   127   1      11.372360574424276      6.6645449444377336      2.5189719690959853
   128   1      9.6585146920887333      9.2892634905015452      2.6564531149198554
   129   1      9.4143496965322715      10.983776777639759      51.900079878177216
   130   1      11.136188792155052      13.950135839008796    0.042983253422845986
   131   1      11.026185183970231      12.116217951362948      2.6227450470058704
   132   1      9.4846208096177875      15.024404016562544      2.4444701259345107
   133   1       9.734107699820532      16.903837216141966      52.072827105951532
   134   1      11.019758577430366      19.700258766836793      52.054287743473566
   135   1      11.021551842449878      17.987953977016673      2.4297186686046119
   136   1       9.626877569285579      20.731984384157794      2.4042404480109436
   137   1      9.6657714056776083      22.534165142511309      52.049528352169425
   138   1      11.368011498768329      25.121950613131347      52.028449905492018
   139   1      11.034326921707967      23.291978003687284      2.7636593948504884
   140   1      9.6436682875672304      25.987517556087543      2.3646922187770061
   141   1      9.7851361906401486      27.909845147137048      52.049466696675438
   142   1       11.25342685270107      30.915627432668575    0.067524943611674423
   143   1      11.157767900313265      28.912960406552759      2.5631559188695205
   144   1      9.6440151845842887      31.500632135449223      2.4440063572456499
   145   1      9.5273110352103245      33.747814474517874    0.040705432299424402
   146   1       11.31319381711166       36.31155017682093      52.001490375978278
   147   1       11.19197966628724      34.390682574013759      2.5389863076034227
   148   1      9.4238648737194897      36.890661581489759       2.621801309590186
   149   1      9.5332283864894656      38.816184573895576     0.20193357875698215
   150   1       10.83445902637332       41.69539214420017     0.27777976272508631
   151   1       11.05423621680918      39.710284335453764      2.5900120795159931
   152   1      9.3861182871357833      42.332751164612226      2.9282736216852143
   153   1      9.3266622740563001      44.494184691402268      0.1277876532102149
   154   1      11.318780781094766      47.026546172860719     0.15009403857658229
   155   1      11.144160102642584      45.264033705560642       2.793974103244528
   156   1      9.1907144826062996      48.057091063481707      2.7085640385232224
   157   1      9.6728805033757883       49.85341943628714    0.082021344390457218
   158   1      11.150549432411605      52.620410751173679      52.044517049440209
   159   1      11.205513767421676      50.791719951559735      2.7014723629798834
   160   1      9.8380366034093409      53.512100935222065      2.6705152419015565
   161   1      12.884493264702545      55.410379164884958      51.924521767619787
   162   1      14.496430406295024      2.7343325554227036      51.891672445528265
   163   1      14.351153404679922     0.77596786256606964      2.2584479127837374
   164   1      12.719899988778156      3.7272544962997762      2.5706929254984661
   165   1      12.911417387287459      5.3437492259768851      0.2910625817225399
   166   1      14.324237989106015      8.1050043050636003      51.932751263671094
   167   1      14.330029875395079      6.4645457948974325      2.6478477025080034
   168   1      12.827024799487564      9.3164407556691273      2.2606815977167822
   169   1      12.679864937697181      10.973191759701203      51.800187886681336
   170   1       14.30694097941765      13.698280141262682    0.035949797775853685
   171   1      14.264616668745129      12.094185492234724      2.6053566531189216
   172   1      12.654481131533304      15.028950551476278      2.4828858089643053
   173   1      12.799934616078408      16.766932378171628      52.049430589664098
   174   1      14.308976931377009      19.344539576423191     0.13046031942688063
   175   1      14.510013702450989      17.556276857326257      2.6583483575728142
   176   1      12.777400271997005      20.515894131733646      2.6014564274111285
   177   1      12.884109308408405      22.156477911093631      52.124665999330063
   178   1      14.511999728435441      24.839815013006397    0.039176225204903332
   179   1       14.39487996151027      23.277352551463899      2.6580143911108025
   180   1      12.751498563804804      26.161308154044271      2.4759908327163136
   181   1      12.935221422011358      27.612280096492242      52.067215615282855
   182   1      14.344091415321014      30.607399377518277     0.25239212355154284
   183   1      14.660310169370355      28.709420931274263      2.7787844853916552
   184   1      12.693402706498835      31.449958724281529       2.738688239238614
   185   1      12.813752344310057      33.582611094340031    0.097651130322580632
   186   1      14.344752237215907      36.376614933601942     0.04890636104844024
   187   1      14.360013283953075      34.249356549308864      2.6088790048617434
   188   1      13.068637364615691      37.163116217729836      2.7415295088364675
   189   1        12.5971921951799      39.071495295390044    0.027076687123070226
   190   1      14.300701562920331      41.556113340197342     0.30569304031601552
   191   1      14.147649804250305      39.897304044971882      2.7137325512450694
   192   1      12.391434970923816      42.596337626119727      2.8549509103633022
   193   1      12.727219089878309      44.347556060910826     0.31517491119251134
   194   1      14.484845006954533      47.034823973358733     0.27417886891395377
   195   1       14.33979698103119       45.16531836422616      2.6132204177766538
   196   1      12.600359667413208      48.000986439991628      2.7829922944826415
   197   1      12.746291082398958      49.829528967883903   0.0071453587204783351
   198   1      14.188605038246356      52.558843665583687    0.034617995033476019
   199   1      14.352851567393651      50.680989272685188      2.5360429771316721
   200   1      12.865748190258556      53.787467214973674      2.4824682870490649
   201   1      15.963186490435248      55.345032903855873      51.928890330691551
   202   1      17.506216426620881      2.5827683316795005      52.083161762693365
   203   1      17.562067489152895     0.84871933046265624      2.6413398703889741
   204   1      16.032822540964798      3.7367474742133457      2.5426256475454174
   205   1      15.944578269412469      5.5620823457803397    0.061690193240813658
   206   1      17.358553212542578      8.4262035845085332      51.794481039101896
   207   1      17.655315303340767      6.3797759465125541      2.2933083353672385
   208   1      16.041867835613793      9.3154802041107594        2.02156100953367
   209   1       15.69151857718391      11.046375198810001      51.729792072171954
   210   1      17.591728044558465      13.686063995694177      52.105409999071483
   211   1      17.429102393984458       12.04730729081877      2.7660414163229317
   212   1      15.958163546850312      14.703746399756881      2.5114453618503276
   213   1      15.998230902827494       16.42240422954076      51.987179759843315
   214   1      17.489671880566494      19.200366853319601      51.892873164133128
   215   1      17.406194111162726      17.572226868904192      2.3443548974291812
   216   1      15.891930702786279      20.338028683933178      2.5374702992579437
   217   1      16.007251471552426      21.883570691420829      52.049932044437632
   218   1      17.490796525112145       25.00582998311862      51.852810677275443
   219   1      17.731865844183346      23.047678544199893      2.3413078043841633
   220   1      16.026271385366332      25.872151492034121      2.6986896608462616
   221   1      15.907634693990831      27.739315090692099     0.21357776843028253
   222   1       17.58732210054762      30.322525201515887      51.970114003057219
   223   1      17.843441965898286      28.659983068779017      2.5797558624555603
   224   1      16.194682309345353       31.48893637977001      2.4947311383932935
   225   1      16.039879574670408      33.362130315463212      0.2270884993633146
   226   1       17.62196096564259      36.053778767197564     0.18503537061456665
   227   1      17.909585555571645      34.147524178352619      2.6520217859871318
   228   1       16.20483523430034      36.643273788772781      2.8150211538908483
   229   1      15.894683077022322      39.078327655138381   0.0087850282295040463
   230   1      17.507330231560793      41.786230032674915     0.18836416907114573
   231   1      17.593166607559109      39.840033633655459      2.4557664499211791
   232   1      16.009362725107678      42.427938442231564      3.0037997335028312
   233   1       15.92290274601179      44.159220246182059      0.2928886531808772
   234   1      17.489726524450671      47.162967391512275    0.062568646507811979
   235   1      17.885100498745267      45.239380474180287      2.7978364873167223
   236   1        16.2482082680262      48.102294920240098      2.6707409156436208
   237   1      16.015618380332779      50.016571744617494     0.11752824411516175
   238   1       17.70474133805158      52.700493505005028      52.022613078576988
   239   1      17.313273755202435      50.889641650099229      2.6167389009169386
   240   1      15.841994271017803      53.497358679440104      2.4180880732946992
   241   1      19.159750902404305  0.00071676492506111066      52.053524379254789
   242   1      20.882163924487759      2.5791794912596031    0.022049451062065607
   243   1      20.685201678074879     0.64809159111920589      2.7800892821876784
   244   1      19.409042761240698      3.6262245068031578      2.3385841771451532
   245   1      19.192677416385258      5.6247750557554737      51.973347536574053
   246   1      20.523957930783464      8.2311883832557964      52.002225513605644
   247   1      20.920995245728953      6.4456550881457613      2.7046807047888306
   248   1      19.062644135821408       9.332385793473561      2.3625065238382996
   249   1      18.968814230527887      11.109317395831171      52.005949958189618
   250   1      20.863865482406723      13.947908461037054       52.03773594763156
   251   1      20.566388286118595      11.959926436314007      2.5037367128762598
   252   1      19.126616220635842      14.775520473651577      2.5616938040578079
   253   1       19.08467021637777      16.417947758369891      52.119134102687639
   254   1      20.804644818480284      19.354870702558163      51.863665760612413
   255   1      20.860133238006021       17.66918092439132       2.593258271322886
   256   1      19.151028229772677      20.230445096497338      2.4208572216795146
   257   1      19.031378028364859      22.108860239930852      51.773845140314897
   258   1      20.509102016814182      24.773502394021239      52.025671416927075
   259   1      20.808304050009884      23.084048106193308      2.7762082063406957
   260   1      18.972623263531435      25.966294649100465      2.5231145992284474
   261   1      19.409099976991588      27.616069342845758      52.121535098435288
   262   1      20.808395764834415      30.241662398874873     0.11745485446840315
   263   1      20.919775427124016       28.60202050532844      2.5582810976492296
   264   1      19.198476726421521       31.38488044141387      2.3252956515887022
   265   1      19.131354911563385       33.38810381864824       51.92200941205202
   266   1      20.811193096079222      36.075878662215985       52.07590932171918
   267   1      21.103326196200367      34.016670872073249      2.6372803852494169
   268   1       19.28804764402642      36.766930903771041       2.658128020123212
   269   1      19.234656872653517      38.833767467646503    0.064086484571863972
   270   1      20.887150486340843      41.528002144265315     0.20344076561312899
   271   1      20.814404949173284      39.431716689519078      2.6485051391498051
   272   1      19.312490696881451      42.510053059526534      2.9661555850469781
   273   1      19.555180337431143       44.29899486083437     0.21447045508395457
   274   1      20.683548442503678      47.145541574307863      52.002892309783668
   275   1      20.995419962277509      45.483942207279306      2.8737047802435085
   276   1      19.166358733062673      48.152235020038567      2.7330941898980581
   277   1      19.267055500918346      50.085955852328141     0.29467262857737475
   278   1        20.9665451887237      52.901676204019246    0.075376246900510743
   279   1       21.10755326670677      50.852526958861027      2.5846484996265198
   280   1      19.372113662776894      53.506139936964153      2.8960123049102107
   281   1      22.490366215881224      55.487193612343525      52.031197074267844
   282   1      24.234364154880545      2.7001856833933813     0.03179957686535153
   283   1      24.110406241097717      0.9073729190830393      2.6901159826813097
   284   1      22.283668947599807      3.6468655604225511      2.4440759316524412
   285   1      22.282590997353047      5.7860531247381353     0.21361246217806409
   286   1      24.233110687780879      8.3376842312690602      52.111412105197893
   287   1      24.067895905447745      6.7087202873531444      2.5803860870318718
   288   1      22.363163053861982      9.3113983352606606      2.6451742478125597
   289   1      22.191024171560585       10.93127545588999      52.119209648762393
   290   1      24.240059645593423      13.715170120976316     0.13653863507164302
   291   1      23.783120552549587      11.944124910526085      2.5724124678152416
   292   1      22.421917798678741      14.743805275179717      2.7446623534201593
   293   1      22.238837926188488      16.622444955960383     0.12332348972689477
   294   1      24.189578961347319      19.197907475718988       52.12479158499832
   295   1      24.077818371127186      17.578165194545043      2.7229012352596871
   296   1      22.418722180309135       20.44591374145746      2.4204751115894592
   297   1      22.444970581414086      22.070618361444502      51.954530760631712
   298   1      24.142137592571142      24.878068327114605       51.80261095091236
   299   1      23.885717875325032      23.204332514832576      2.4150590665157838
   300   1      22.238896928189135      25.807837693356728      2.5322370651124109
   301   1      22.510482481783924      27.724500419943254       51.96960018555022
   302   1      24.205384770879604      30.509252950760743      51.901698688845315
   303   1      23.996094166878315      28.585622944095157      2.2345404935403299
   304   1      22.563980436875649      31.303815691561862      2.4000865609129605
   305   1      22.336537974612082       33.07653656327215      51.817013096331635
   306   1      24.062626805838651      36.329884984711171    0.035348445644576051
   307   1      24.093222865386384      34.191893377044728      2.2903996518769465
   308   1      22.634910256011818      36.972476097344689      2.5708878890405336
   309   1      22.427139086971128      38.748622634067729     0.12104487741033998
   310   1      24.310552396116744      41.958686492122084      52.047051297399022
   311   1      23.978238093463318      39.974333347605366      2.4205817802239999
   312   1      22.591220088620783      42.655882291667098      2.7219478142208455
   313   1      22.832261709210222      44.652797378842145     0.34669722096123357
   314   1      24.295637638397089      47.273419756334405     0.36120688727524286
   315   1      24.111941560638787      45.673034127228348      2.7666912070757999
   316   1      22.484867760887663      48.110677396111456      2.4288160143161215
   317   1      22.562003510123169      49.780779977542494       51.98448394529207
   318   1      24.030528248236703      52.526340843705199     0.16935279993325736
   319   1      24.349985817781182      50.907861183490041      2.8720301981669802
   320   1      22.575526561967635      53.468046338365951      2.6575336382730592
   321   1      25.649103095848908      55.459479106632315    0.062207312627905027
   322   1      27.183810425730567      3.0747427747999998      52.122931330322153
   323   1       27.41489149025503      1.0645253090832965      2.5599627156848044
   324   1      25.442028421421519      3.7645274303329059      2.5338084769259575
   325   1      25.727883143673644      5.6189257996059467      51.858269409295914
   326   1      27.351950387351682      8.1607165837059981   0.0090475480254417623
   327   1      27.149942397690474      6.5031923082180292      2.5676604648148147
   328   1      25.736118105117022      9.2739194902967412      2.6215930297283641
   329   1      25.662979207290562      11.003769595454068      51.920872717420785
   330   1       27.41595607081436      13.692144247094927      51.966026496612706
   331   1      27.255116086741825      12.018444199703735      2.4267558403248772
   332   1      25.728573425163372      14.789465527529323      2.6031131872844897
   333   1        25.4723988667645      16.530454310538556      51.965673450430508
   334   1      27.040011332994016      19.550403211240397    0.037225592531191697
   335   1      27.267918562005537      17.694424351163995      2.6120909888201185
   336   1      25.623728727744297       20.45929593516421      2.7577181452137554
   337   1      25.576263354406976       22.12121475094909      51.823628124105753
   338   1       27.21743182652089      25.028624404226296      51.858923238301507
   339   1      27.204124748655374      23.172401481510153      2.3092285799857772
   340   1      25.462232733288229       25.93405351419505      2.1616936244967238
   341   1      25.740067308462908      27.616216021895106      51.987556640117141
   342   1      27.266881503883422      30.910222929916539    0.035653485309252046
   343   1      27.231097561491424       28.71424920644105      2.4915194688497349
   344   1      25.597379578103251      31.230325237059315        2.53418611998107
   345   1       25.56805969900417      33.553366582919985      51.669757595365951
   346   1       27.35655947128339      36.109652303177221    0.035503366996988639
   347   1      27.250216552772375      34.477927974499011      2.6361682537305331
   348   1      25.595890412542339      37.117118115596639      2.5052499274684106
   349   1      25.586573505896862      39.149537961591868    0.048556008917371739
   350   1      27.427749108914654      41.801847121866665     0.12768936708616396
   351   1      27.197734648209853      39.807582460212259      2.5515987057981993
   352   1      25.741308126435126      42.908527811402891      2.8193118887934947
   353   1      25.786277638518172      44.618986875765444     0.11007404554345272
   354   1       27.40118035733234      47.176459514411277    0.056557590487647885
   355   1      27.477545397364228      45.532570951041755      2.7296076742614437
   356   1      25.817419095004471      48.187380201988454      2.7699576844760561
   357   1      25.919684641323286      49.774096033011809     0.18676113114042459
   358   1      27.385203602378994      52.869804785501969    0.049320321711527247
   359   1       27.32575340449095      51.082073700204624       2.587579052832917