dump/Mg_500_0/steps_11 (written by ASE) 

4000 	 atoms 
1  atom types
0.0      32.100000000000001  xlo xhi
0.0      55.598830921999998  ylo yhi
0.0      52.130399999999995  zlo zhi


Atoms 

     1   1    0.018571336950913078     0.11554240137744823    0.084606377030375032
     2   1      1.7984961470876102      2.8435191322531481     0.13348517263742649
     3   1      1.5921155469313946      1.0464215240727559      2.8006590861789973
     4   1      31.936470031853904       3.713364907800627      2.7541497024527217
     5   1      31.909961266050566      5.5951206800301048      52.122014706220988
     6   1       1.572821079892889      8.2290148619733046     0.22739429226755967
     7   1      1.5042686428062326      6.2204633104923275      2.6134669669569321
     8   1    0.070351930166533294      9.2428388780526998      2.7668203578158566
     9   1      31.942380487731093      11.166415279757068     0.22297523657756244
    10   1      1.3241794505451152      13.795569506617893     0.17935717823986211
    11   1      1.8474691647086623      12.090007265523623      2.7713989734369231
    12   1      31.969855722377275      14.811940976871393      2.4557043210744096
    13   1    0.031213481263755168      16.655853254710738      51.760142214091218
    14   1      1.3841204830431637      19.366680705363944       51.78541962406554
    15   1      1.5279480218266499      17.435287753403426      2.4633428999221434
    16   1     0.23565090981434345      20.392018723799016      2.5184399786442584
    17   1    0.024720256611648443      22.105078250323732   0.0092024686251837035
    18   1       1.483685298494688      25.246053124971198    0.052940208288660168
    19   1       1.506086641347703      23.321945995928438       2.621708519206241
    20   1      32.014031102053046      26.115527757791618      2.6516788773240174
    21   1     0.22772772298025268      27.957163577254637     0.12760432933407839
    22   1      1.7124376380554656      30.694724524069024      52.120776175296157
    23   1      1.7949214682388768      28.524759464174384      2.5064897330942664
    24   1      32.031716513878635      31.401784677955586      2.4124507978314482
    25   1     0.10765170718962579      33.274761688071436      51.984378754902636
    26   1      1.4519487739398111      36.270782191736714    0.022291945149363057
    27   1      1.3144989764150889       34.37492239894496      2.5338763253108549
    28   1       32.02295533944131      37.175364263201139      2.3819422974004838
    29   1     0.02028138226849583      39.204825798412124      52.064289129194385
    30   1       1.600799865519368      41.911690246098246     0.10576278053024253
    31   1      1.8196142207184072      39.812087721306447      2.4604027034760341
    32   1     0.11675479250768873       42.54665786626321      2.7212266570235526
    33   1      32.032730878790652       44.68441601037177    0.046100221130969003
    34   1      1.8931726708627166      47.452112865121869     0.20767845030499868
    35   1      1.5677457868086706       45.39731763085765      2.6769644344836951
    36   1     0.25462950810263346      48.201476650046033      2.7368631020934329
    37   1      0.0951207266068341      50.027146431225553     0.18661915001543949
    38   1      1.6596293708469405      52.630802262265739    0.023275117343591684
    39   1      1.8471566176419789      50.921578380187235      2.7575496857171138
    40   1     0.14024013514906877      53.690252528184821      2.4905443303001991
    41   1      3.3980727621447229      55.594908255943693    0.061392679150381609
    42   1      4.7590299448248548      2.7522245255138973     0.10445835871827379
    43   1      4.7224629604309358       1.052776967554353      2.7473287328339713
    44   1      3.3778232412452871      3.6355206466025236       2.806372087780117
    45   1      3.0744146128276717      5.5396725345949722    0.033697360238000233
    46   1      4.8728789422872651      8.2197083618307314     0.14764705313085869
    47   1      5.0556398330390167      6.4461994661106781      2.5317479056372303
    48   1      3.0411630086843835      8.9378771596144979      2.8293601576946452
    49   1      3.3486336254407028      10.682680954843899     0.19370786540004928
    50   1      4.6556042051154236      13.820739104764371     0.21091560022638056
    51   1       4.747747122964344      11.932114667089731      2.8300502940878891
    52   1      3.0932480015393145      14.878177861258662      2.8345505446545447
    53   1      3.0092418576550122       16.47670943293906     0.11447987051664833
    54   1      4.6946051885941662      19.752753739767794      51.850414346503257
    55   1      4.6560853745234931      17.709566285306842      2.7282733862243846
    56   1      3.2241178660140828      20.286832301988746      2.3540006280484329
    57   1      3.0952730375412596      22.560781525170761    0.067994748072927769
    58   1      4.6725636677252069      25.047419686928563      52.063060702463716
    59   1      4.7432759412982026       22.96082068510426      2.8213181732336157
    60   1      3.1933450051234589      25.833747972085813      2.4856408388780644
    61   1      3.3489174571531857      27.897762950061395      52.026672282508137
    62   1      4.7022895888051695      30.841196486113599      52.105348642941856
    63   1      4.7487344341704629      28.837194071349469      2.4764864345304769
    64   1      3.1160667575940377      31.844133105669425      2.3671584909214243
    65   1      3.2742286566828573      33.791246472793482      52.074061451772863
    66   1      4.8662942386533725      36.477108715559659     0.14904301955021387
    67   1      4.9128182181264304      34.408700528832199      2.6241466032669418
    68   1      3.2133945551953622        36.9824302947871      2.4421858539615964
    69   1      3.1862268057847758      38.869006023792402      52.094506297097233
    70   1      4.7622347092730992      41.528916291308988      52.099935746150123
    71   1      4.8341603477807285      39.763835031683016      2.6190506645873004
    72   1       3.143609595220112      42.451328878589493      2.8033265153431115
    73   1      3.0190423056420763      44.517711658006455    0.051803331075522582
    74   1      4.9444102638317702      47.272707704150527     0.22169658147828719
    75   1      4.6330465869226396      45.319382153163268      2.8146915558520753
    76   1      3.0739090934258502       48.24100249214338      2.8476050573822071
    77   1      3.6989356826882389      50.145635710881592    0.073314195120522133
    78   1      4.9633535983475117      52.999122809744939     0.12293491685721987
    79   1      5.1046140778261266      51.160598114922763      2.6100648157166786
    80   1      3.2953075839346346      53.844439594816443      2.7364181067996793
    81   1      6.5800272795151562     0.12536168139670806    0.093602381158232009
    82   1      8.3940303463243371      2.8959936068401766      52.005377594654675
    83   1      8.0290341339969089       1.324719821898612       2.507445798596887
    84   1      6.5990712443135457      3.6766657384441364      2.7041319183914401
    85   1      6.6987196733264947      5.4849783863749471     0.22811826383661271
    86   1      8.0812479391584571      8.2546785167319428     0.41277307668797864
    87   1      8.2268654784814466      6.3485640422920335      2.7802815623108215
    88   1      6.5188980115513395      9.1816283758644381      2.7342453860593321
    89   1      6.3317124190039875      11.349525191854431     0.12869368348720861
    90   1      7.8675732672328742      13.716399598916057    0.060533965962412825
    91   1      8.0896122828088082      11.892346370656252      2.6764726841858533
    92   1      6.4068430497447961      14.837827210523486      2.6122797584282171
    93   1      6.0997723291945309      16.851392070664744     0.32434084329517132
    94   1      7.9402043160162732      19.550380188852419     0.10386034501308798
    95   1      7.9720545053231273      17.622894588969718       2.738942931266017
    96   1      6.2583990783823475      20.138311524382871       2.556249842276697
    97   1      6.0403381087519206      22.447228416284091      52.093337587544056
    98   1      8.0015532667799469      24.861440196453422      52.018146848686854
    99   1      7.7943775499746426      22.743862460786218      2.5466029848443368
   100   1      6.4807580601009693      25.735657689181135      2.3290905556875212
   101   1      6.5410401893066892       27.83316495971372    0.039155325100430051
   102   1      7.8576096130981368      30.471657089225445      51.991433414810082
   103   1      8.1577878188191715      28.625082058611131      2.4116928212674957
   104   1      6.6129852757782785      31.525219407946363       2.700967491404735
   105   1      6.1660923689829596      33.588604870644474      52.084058385479551
   106   1      8.0184640568890373      36.689580932576384    0.084424421847241207
   107   1       8.126584307558181      34.500998667245398      2.4669657244216263
   108   1      6.2757373201321034      37.160434843917514      2.8987387944015031
   109   1      6.4809721230261284      39.102669994759388     0.14200219295834143
   110   1      8.2040921939424063      41.748941649460164      52.110100377141102
   111   1      8.0106171155034911      39.917737349012214      2.5436395905681453
   112   1      6.4430800835856488      42.842610124189207       2.735008645405018
   113   1       6.252892202680024       44.61793561095201    0.076627507580570742
   114   1      8.1937294917209389      47.360282551986394      52.110379331254094
   115   1      8.0585189321890223      45.422998302496381      2.6194344941385777
   116   1      6.4317438902917905      48.429692192197834      2.4715801780453925
   117   1      6.6589942034655714      50.323187000715507     0.15214904959110506
   118   1      8.1944254278891986       52.90513801641044    0.025683507760054337
   119   1      8.2076239742917032      50.898885519288875       2.706344723328765
   120   1      6.5432859619488086      53.846268637880925      2.7963660214051798
   121   1      9.6918634726444726      55.537343403099094     0.11479424560245267
   122   1      11.488449195991381      2.6243916277885209     0.22539401571545867
   123   1      11.288330095103444     0.96374390226374995      2.5797276000233929
   124   1      9.6409372620504872      3.6613225823073376      2.5436030328582415
   125   1      9.8211646063750084      5.7036804167649251     0.11411986235640013
   126   1      11.123743629022075      8.5828752705959364     0.25073793023758773
   127   1      11.588095270678883      6.6306507100089833      2.7296972437307363
   128   1      9.7946199996493668      9.1546438897221929      2.8005683909337344
   129   1      9.6538438256455557      10.931507471719188      52.089108932342342
   130   1      11.205065740518975      13.877858198756245     0.24802638695353288
   131   1      11.288440172696454      11.900883952952062      2.6973008682017205
   132   1      9.8482819384406426      14.500355875382199      2.8021212060401233
   133   1      9.3342897455084195      16.656851184735249     0.20634363277896997
   134   1      11.189912689225022      19.426582222924075      51.715932829227512
   135   1      11.402075252601799      17.728468977784331      2.4827605669079778
   136   1      9.4960332688731732      20.018015096631014      2.7148737633964983
   137   1      9.5478003444239654      22.107511215035917      51.985721995639672
   138   1      11.195203410517346      24.942039002746288      52.063308397955424
   139   1      10.872158437207046      22.835060740453418      2.7273615174754524
   140   1      9.6435253788567223      25.779220460996761       2.587013651853848
   141   1      9.8954394416018658      27.590232515659533      52.022105334816693
   142   1      11.060964069999597      30.470661141136674      51.929608817686109
   143   1      11.194044653878462      28.687679935928674      2.4908474263263445
   144   1      9.7533067895310879      31.374257505359857      2.3994875579852262
   145   1      9.2950505046277172      33.322615575575156      52.006533124574872
   146   1       11.24953109971664      36.093220002340068      51.743751136421835
   147   1      11.325882265170206      34.249807393356015      2.6480387413409776
   148   1      9.8813701925351811      37.183282861175151      2.2161103487700546
   149   1      9.5636863295476697      39.145757084404714   0.0037763843774188872
   150   1      11.286640099563746      41.691314760944991      51.998373153408181
   151   1      11.337968359048137      39.783050626881099      2.4509391005733647
   152   1      9.6131366690769848      42.850348854363467      2.7097878089578384
   153   1      9.8543452020366811      44.393284214959628      52.080580261770699
   154   1      11.348475853079915      47.315839559970129     0.22702502812552927
   155   1      11.308016683369351      45.459264842437378      2.6955278355811303
   156   1      9.7815543597089469      47.997629871894915      2.6437203628377239
   157   1      9.7517783203480519       49.90892698190909     0.15852353640782144
   158   1      11.220679311983085      52.874927236338586    0.095922684155342011
   159   1      11.423773318167941      50.818728175522274      2.5401219811954836
   160   1      9.6143979706797413      53.565541754918058      2.6616119173787474
   161   1      13.019872920483744      55.552650572833841     0.21216522023264967
   162   1      14.571752583917585      2.5149065531443173     0.21871774015479054
   163   1      14.616028758967021      0.7205639857907542      3.0310899206140705
   164   1      12.907866018043679      3.5600446244575723      2.8412720041467994
   165   1      12.644322264729004      5.6217334132489096      52.104249201040716
   166   1      14.601056127143265      8.2839710839837473      0.2913260773292683
   167   1      14.705225546248121      6.5182319408227238      2.7369059155392716
   168   1       13.09840391614755      9.4296912162662565       2.935443015750749
   169   1      12.821452981643166      10.994864749293594     0.11965519140503271
   170   1      14.336642626465004      14.122767941560451      52.022154809812371
   171   1      14.610672838169679       12.14385794057465      2.5449812476713758
   172   1      12.885009901097005      15.054771501078573      2.6233792430042677
   173   1      12.736766865818131      16.881248707444172      51.931270157598718
   174   1      14.306441055604129      19.550395843746298    0.014931587351970855
   175   1      14.600326151102379       17.68574511268644      2.4926660685641315
   176   1      12.890187521662266      20.443619592770762      2.5482670450596996
   177   1      12.789136376864287      22.157991560521218    0.025887439431842258
   178   1      14.264680308913173      25.120228043439049    0.069813637512637666
   179   1      14.425725026434307      23.268065681078653      2.5337578024873997
   180   1      12.785548327353746      25.647062076466295      2.7777280311292274
   181   1       12.78863415015193      27.774493733442007      51.851746198127749
   182   1      14.259117152309646      30.413019576960867      52.090099995772441
   183   1      14.257506910708468      28.476865487069631      2.5914264116259669
   184   1      13.043865092463852      31.689156567583741        2.47612168225174
   185   1       12.53543580425718       33.46574744531268    0.013724977493414845
   186   1      14.607580031578731       35.90920365201297      52.015753937335845
   187   1      14.375087229808518      34.263295202928681      2.7107293266234103
   188   1      13.153785570133181      37.104957549833081      2.2614460751561527
   189   1      12.342477955749926      38.785874224904994       51.88700811812673
   190   1      14.262622371233578      41.770069797573036      52.050891485119784
   191   1      14.416280427864734      39.849779348659823      2.4850268316037263
   192   1      12.671785823068939       42.83696259762992      2.4672728826229631
   193   1      12.869631688511483      44.659054503998917      52.031818996279753
   194   1      14.413157869574217      47.442713801875385    0.062452027247625372
   195   1      14.633580040627653      45.429376055228097      2.6164981010556492
   196   1      12.996007208053975      48.149309929609068      2.6683821005888158
   197   1       13.00622102008734      50.162815735308001      52.094517641556251
   198   1      14.468920027191695      52.952719793692772     0.20881604860622421
   199   1      14.766436865987643      50.957054807322315       2.468851640406954
   200   1      12.843399575791015       53.73429133272532      2.7100955692897499
   201   1      16.180320096957214      55.549927099764616     0.21359485711740714
   202   1       17.62653302484199      2.6203097015956183      51.985341155144937
   203   1      17.697809031273746      1.0393005108887718      2.5235942954114616
   204   1       16.20737893240576      3.4295969461768077      2.6193836986326491
   205   1      15.974246393148707      5.1941490555556804      52.082429462352728
   206   1      17.832187605130997      8.2008651532724031    0.032385497269428076
   207   1      17.703356766260271      6.5150987511064731      2.4877782756049931
   208   1        16.3248450640031      9.3366313464331796      2.6163873248071305
   209   1      16.057701702482756       11.11947634706436      51.996958862220957
   210   1      17.588521678382438      13.985494998552333      51.997827590147885
   211   1      17.640052204334626      12.194916038557825      2.5016260032519551
   212   1      16.115847157147158      14.909145294151852      2.5484065357872514
   213   1        15.9215511969579       16.72265217167946      52.019546758892837
   214   1       17.66635115285456      19.806431297913672      52.057576737326606
   215   1      17.521562394261686      17.637208493050842      2.4737345704975158
   216   1      16.177101760020037       20.49754036246593      2.3930357954122159
   217   1      15.985599952815091      22.492733677482565      51.975117769908898
   218   1      17.862195293673715      25.137285592925831    0.026086548138452438
   219   1      17.744514599719768       23.06180677180479       2.515401817340003
   220   1      16.095397711989609      25.770598466491631       2.563082503797907
   221   1      16.015138525474441      27.726192231746975      51.753480130129191
   222   1      17.287703248902609      30.600006258910401      51.993019074936299
   223   1      17.690219503518055      28.823089896747948      2.4180793093876356
   224   1      16.062293189979798      31.314164817059137      2.8195652991354323
   225   1      15.930856510345315       33.28885494525381     0.11548960460526611
   226   1      17.607786108284039      35.945983583544027      51.774577459498971
   227   1      17.551731888803282      33.983276859770541      2.7424515696464411
   228   1      16.249338157330161      37.178512634796313       2.276092290784629
   229   1      15.964835252614412       38.76377409069913      52.054357959938038
   230   1      17.400386199669182      41.706086097559869      51.942536304605099
   231   1      17.605037925520659       39.92712179138087      2.4960989540779859
   232   1      16.034902439833683      42.619868676628492      2.5223437695749897
   233   1      16.035301639766097      44.573262738651728      52.008470960991609
   234   1       17.73825064181311      47.184002713782242     0.01541102463999912
   235   1      17.885990116948225      45.477233218407626      2.6512611049472525
   236   1      16.155293887277583      48.191928616282134        2.76234986937461
   237   1      16.447474412311575       49.97300131765833      52.073118290822855
   238   1      17.700908588475155      52.758731739537104      52.082356834995366
   239   1      17.792481709541661      50.983292741180371      2.5311152146718974
   240   1       16.11692167002975      53.692599029045518      2.4957060865230885
   241   1      19.533776879487558      55.543781670520268      52.091952866397151
   242   1      20.733170445098263      2.8792974161044294   0.0057238773182297234
   243   1      20.966235492403214     0.96813074359457685      2.6155979983383495
   244   1      19.316518141711981      3.7805543977169513      2.5375710746119031
   245   1      18.854196497483699      5.4179654020058905     0.10788683717377613
   246   1      20.880396991791251      8.1235797541778911    0.028618805843535673
   247   1       20.90397748205968       6.264501045209129      2.5287486268942638
   248   1      19.431509339125157      9.3408717144268625      2.7621775175752017
   249   1      19.310948683656108       11.19340041733931     0.13111027807863551
   250   1      20.775812002262843      14.209821258011093      52.026400109444786
   251   1       21.06935053087496      11.896038218603302      2.5099448588633866
   252   1      19.175162965344516      14.945017090866127      2.4478049583262527
   253   1      19.209404522069729      16.905705323792276      52.032917463359823
   254   1      20.831035500523988      19.609042933674154      52.098048308789302
   255   1      20.931105676433685      17.733647127934351      2.4690341463968211
   256   1      19.140273416618619      20.423919772918232      2.5535691268048271
   257   1      19.437323338741169      22.320926521742731      52.003218355599373
   258   1      21.182344177226344       24.92142381024885    0.064251374726622401
   259   1      20.827504237247112      23.216927740807645      2.5022742683177679
   260   1       19.22822846694153      26.186434838589591      2.5698153441796374
   261   1      19.225851811276399      27.833857914646952      52.098352247276111
   262   1      20.362522404124991      30.507091619626902    0.016993180874081484
   263   1      20.810956438562116      28.892639867487016      2.6298374562963907
   264   1      19.204705846171731      31.595497239947793      2.6209947770650692
   265   1      18.908377582792898      33.320806517500159    0.049681504618746118
   266   1      20.885164669091779      36.370382958584628    0.068525443166659664
   267   1      20.722539266093143        34.1791434187829      2.8219429108470235
   268   1       19.30162736128192      36.985551182342846      2.5802532295193901
   269   1      18.917067675546321       38.92658098002795      52.035686524665991
   270   1      20.911064906202824      41.472460421962261      52.075603029124608
   271   1      20.858572314015262      39.686578997411125      2.3010409020682423
   272   1      19.207380644549509      42.617127450827248      2.5820992838552574
   273   1      19.149015438269466      44.376945462944782     0.19826793733278084
   274   1      20.927904884234529      47.248670794216714      52.053072118413745
   275   1      20.938483279194326      45.743178768481002      2.5344370985627624
   276   1      19.201490140395865      48.025037213236068       2.814992009494659
   277   1      19.397807125957819      49.989497485150324     0.25516419502457549
   278   1      20.816290363238611      52.797063211475759      52.059492682576149
   279   1       20.94363044732691      50.980728850962173       2.605325152662187
   280   1      19.179338956992417      53.753432555431885      2.5600083524396284
   281   1      22.511369476536679     0.22035624840768847      52.076494755409087
   282   1       23.98332959597105      2.7845655449192832    0.039100092784914699
   283   1        24.1180225140271      1.1094683345860337      2.6205672016275887
   284   1      22.475929236931663      3.6529806274101668      2.6445088842452691
   285   1      22.392306304469521      5.5880524301854759      51.980772404988095
   286   1      24.096314709221108      8.5343890906268491      51.994172776017997
   287   1      24.181382297039637      6.7578287887901078      2.6139975775500526
   288   1      22.458470671454638      9.1569166259491031      2.5436086229133124
   289   1      22.542077398025857      11.325251011412705      51.969340424795845
   290   1      24.204281929214527      14.179155743980818      52.039811109523271
   291   1      24.112791663874987      12.097682206429248      2.6788899067712739
   292   1      22.553470911726592      14.883560783700654      2.3809550721342285
   293   1      22.521700413983613      16.935646102438106    0.007438323527438475
   294   1      24.151192435248838      19.499852146256501    0.070650325489864593
   295   1      23.977202420016781      17.609857666381785      2.6782970892551416
   296   1      22.536365904661459      20.539667692183052      2.7176752559344015
   297   1      22.698373583325552      22.339818517076534    0.095258772791936785
   298   1      24.305917821230068      25.132911844759988      51.967437907003514
   299   1      24.255547644499291      23.301265060417627      2.6162108376101134
   300   1      22.680106545354008      26.005491350200103      2.6128049768949277
   301   1      22.546373326785496      27.675478495741324      52.079721410550647
   302   1      24.374866239316653      30.619985612367497     0.10141109484073028
   303   1      24.195126451094005      28.967256179671168      2.7261689917021661
   304   1      22.484579082396486      31.551899382714307      2.4763721814118815
   305   1      21.877001048166285      33.437562396697331   0.0025113894024253588
   306   1      23.882237177253664      36.036250668372055      52.078412832876715
   307   1      23.739937925652956      34.329857469199922      2.3525560417620284
   308   1      22.358667907700863      37.134067751643414      2.4798960269628978
   309   1      22.656974842621761      39.071077338904558      52.022411088226455
   310   1      24.134787154476708      41.644927869691678     0.17805760147536071
   311   1      24.074411090420625      39.787690332023189      2.3500352117186796
   312   1      22.669374928098534       42.85668260621209      2.5097999690813078
   313   1       22.76087942216731      44.554402115802162    0.015307545473886212
   314   1       24.02502211149077      47.455748494117941      52.074184136239587
   315   1      24.460851565246543      45.416933836572042      2.4582343651870495
   316   1      22.611373163710784      48.182237986943584       2.763774725977135
   317   1       22.47397004353736      49.934820972508362     0.26087656006192955
   318   1      24.060530946117886      53.206305992148444     0.14833994987544907
   319   1      24.226099407495767      51.058969827828854      2.6003638132281859
   320   1       22.82520419168873      53.994252984771144       2.679223353096396
   321   1      25.825195616497059    0.069309574435542518      51.957244101127252
   322   1      27.151457589222588      2.9483136558852374     0.13020320622995918
   323   1      27.282226799128317     0.92485125540155078      2.3833298066349426
   324   1      25.559841557702587      3.8173236187799917      2.6601413813266066
   325   1      25.540469770544771      5.5613114323700472      0.1330587081891941
   326   1      26.978564516503617      8.3868859613643512     0.15723988752269719
   327   1      27.239204509182073      6.4601573955831988      2.8128798350429385
   328   1      25.762215446781443      9.5589064429482704      2.7620434400903182
   329   1      25.639540230025066      11.060191439908673       51.97048998669289
   330   1      27.312249656953885       13.89793703359449      52.020882885004902
   331   1      27.168717446064651      11.982875684597177      2.2618401488805411
   332   1       25.81404798780537       14.75210759582394      2.4465720310727326
   333   1      25.577868334922734      16.863065323353304    0.085252925781961836
   334   1       27.32724835552667      19.648900238438348      52.087896746044947
   335   1      27.319115302801695      17.533956016622312      2.4799365285423978
   336   1      25.742208171404098      20.708862228670196      2.5701768171554491
   337   1      25.748155575224033      22.444542072105129    0.094036857127382079
   338   1      27.493354670510438      25.042630569719272      51.965475760611731
   339   1       27.35457876347844       23.34667648640222      2.4472332749714534
   340   1      25.765399885951613      25.960211385837429      2.5858156341867784
   341   1       25.70875967982175      27.921509098769238     0.06719929628765732
   342   1      27.426641765045961      30.743819515335169      0.1713113606584927
   343   1       27.05854001060916       28.71650980751706      2.4484175827550123
   344   1      25.732084323519341      31.638684495541799      2.6191594025919254
   345   1      25.655579367869613      33.579448767743855    0.078709752535448874
   346   1      27.403539676925497       36.11088041761996      52.062510688016047
   347   1       27.42968116574643      34.098269350380406      2.5992124882476317
   348   1      25.703229254679357      36.792671384385336      2.2467154424443825
   349   1      25.795430734738758      39.078008090691526      52.043678421137379
   350   1      27.417408218507408      42.006044405455775      52.018973204312935
   351   1      27.573417803469724      39.717445297700891       2.766873797109938
   352   1      26.163280849459394      42.797935170481878      2.5959569971715015
   353   1      25.741207690421845      44.817096781315911      51.845427892038934
   354   1      27.218473662551204      47.428881005849959    0.085357804927283204
   355   1      27.433595038102435      45.362307726063428      2.7375933198448368
   356   1      25.801299498572554      48.055162350838977      2.6576728971247152
   357   1      25.685987948481475      50.045972747127536    0.053945670852970959
   358   1      27.182664947319186       52.80505063132653      52.006000091858041
   359   1      27.377487880759993       50.82721979585174      2.4377173693488277