dump/Mg_500_0/steps_61 (written by ASE) 

4000 	 atoms 
1  atom types
0.0      32.100000000000001  xlo xhi
0.0      55.598830921999998  ylo yhi
0.0      52.130399999999995  zlo zhi


Atoms 

     1   1      32.034863366087052      0.1132571777573485     0.12213493542903182
     2   1      1.5571836380067217      2.7918858251198806     0.23268778347470545
     3   1      1.5531892348938516      1.0519326366326254      2.6375606772048155
     4   1    0.019889382757776686      3.8491356306062956       2.850971186784407
     5   1      31.928612339426785      5.6194434887329265     0.16821887171917335
     6   1      1.7259302246106285      8.4792972089605065      52.041325344721947
     7   1       1.512512788577056       6.470448245177848      2.6454013132900149
     8   1      32.013856516378645      9.3766671902080461      2.4161294831501179
     9   1       31.94620138700402      11.203569699138191      52.055000991981352
    10   1      1.7065836208225094       13.75680169083839      52.088114971459291
    11   1      1.4699709886617478      11.841959801379753      2.6047875066908261
    12   1     0.14884885235088757      14.757124597614595      2.8117261951616617
    13   1    0.076147902732169342       16.55065536419535    0.082482926108895432
    14   1      1.5459109144198853      19.380074279896959      52.053815174479794
    15   1      1.6843624485067632      17.526757982141884      2.5695801351142369
    16   1      31.953737767690086      20.601851385996795      2.3634624633130352
    17   1      32.061386009729382      22.236035264228182       51.99377122408724
    18   1      1.5256454321139084      24.853750590089046      52.076801891809652
    19   1      1.4715312131747749       23.14024153007697       2.589168172022918
    20   1      32.059456676841748      25.841100276741592      2.7178085377693892
    21   1      31.911364496019541      27.587191696671951       52.12048958492484
    22   1      1.5326558003979085      30.483267329320466      51.825870390858832
    23   1      1.5618144896174411      28.467322046228752      2.4425330145618047
    24   1     0.25439986717499519      31.594973212336679      2.2748264369117055
    25   1     0.10578917209166405      33.432993520366651      51.776139778769888
    26   1      1.7102343582148092      36.091201800223075      52.028730235146142
    27   1      1.7668620447362298      34.230133802037798      2.3820985219754092
    28   1      32.034845563190537      37.241061784071775      2.6707287357498317
    29   1     0.32932273294332454      38.893533398550332      51.916491631169258
    30   1      1.7238320035102483      41.992745560145835     0.18019084519279177
    31   1      1.6842011837134148       39.77140538168095      2.5291278690129255
    32   1    0.034053366454864391      42.441164170852275      2.7137103376236871
    33   1     0.17488800675336313      44.499488422598134    0.070327839566180064
    34   1      1.5952195474067739      47.204679676351041    0.064754880625378139
    35   1      1.4678231314942782      45.647314399416793      2.8452372146892912
    36   1      32.037783436571381      48.389117753452808      2.6890491127257636
    37   1      31.725553864060952      49.936826643251663      52.036016866903374
    38   1      1.4535341705497253      52.662591376515749     0.15576687056150576
    39   1      1.4802486023066332      50.935904862587044      2.4622323378044775
    40   1      31.923725723023473       53.84431241935382      2.6694482199480283
    41   1      3.1435851399463011     0.21085696693902614    0.087128361830475301
    42   1       5.197747343598075      2.7162560949954178      0.2198789045435362
    43   1      4.8971598558886447     0.89482878403120003      2.6135875575562348
    44   1      3.2929804065497454      3.6271389442964495      2.6851489558725166
    45   1      3.3643884953297296      5.3665947136093006     0.15156022098627864
    46   1      4.6497962419507965       8.279019880709944      51.932856637466209
    47   1      4.8651330685294685      6.5161552177751725      2.6411247851520168
    48   1      3.0996048787924022      9.1921654831675728      2.3758113003179888
    49   1      3.0903929831391466      11.113292883991829    0.045210011314809326
    50   1      4.5324130624961798      14.026595484744105         52.113762881526
    51   1      4.7006362421223011      11.865890696905064      2.7701006023085193
    52   1      3.2062025435083923      14.390324563000485      2.6453782828787671
    53   1      3.0908939953231247       16.76926454060834      52.085437705770239
    54   1      4.8248136183901797      19.299691530879219     0.30170007519845404
    55   1      4.4836430114410479      17.226475770822649      2.7189249680509606
    56   1       3.159031829285929      20.510223865644697      2.7044770981937041
    57   1       3.110185894334045       22.23823431594446      51.939040371144756
    58   1      4.6122593191570891      24.778759872649452      52.034941351749367
    59   1      4.5887765652058885      23.318878444842984      2.6563624091490592
    60   1      2.9926898092866399      25.766823974550267      2.4865581218830997
    61   1        3.17744931567682      27.730667779568773      52.063097654596739
    62   1      4.8604903880150383      30.635808323753352      51.875396694614707
    63   1      4.5740770683608263      28.489104948250574      2.3358255440371156
    64   1       3.294107961453685      31.318225520670765      2.4663299560231842
    65   1      3.1052897988272607      33.050786520904182       51.98216194376333
    66   1       4.804213368713607      36.220251620729151     0.13730849238133447
    67   1      4.6714577149074694      34.242055275553447      2.5562573173745968
    68   1      3.0418063966682909      37.076833841982953      2.5769987915124348
    69   1      3.3472357879282173      38.946685871561769      52.120927503390142
    70   1      4.7765462002015315      41.802829297172096      52.097662983112556
    71   1      4.7200240740669974      40.027294154921613      2.8366802690678741
    72   1      2.9894677194590282      42.850456956797025      2.8724809159858347
    73   1      3.5022537268434983       44.58900621757325      0.1155539833504656
    74   1      4.8502664585343434      47.335728024875927    0.047599558936374541
    75   1      5.0726737024940176      45.523155675673777      2.7730561023322413
    76   1      3.0031339692466803      48.207189928467912      2.4818089329166235
    77   1      3.0962788691895136      49.948826233101414       51.92476849618162
    78   1      4.6462243101556844      52.903832861209345     0.19953169445500277
    79   1      4.7672583821801373      50.970471578338604      2.4968886951141953
    80   1      2.9831157209383181      53.806262919036811      2.5080047881201724
    81   1      6.4253228363691539      55.436222827083746     0.22861285195753686
    82   1      8.0918595429103899      2.9344673591766561     0.14218047401836023
    83   1      8.0752720826935445     0.85760602399906327      2.4764947667542705
    84   1      6.5479958934635647      3.7373085931341015      2.9825226365781887
    85   1      6.6868343200511653      5.6241165957394257      52.056710985195579
    86   1      7.8557099505058803      8.3859443269121794      52.015333454112117
    87   1      7.9593522386344162      6.5091007299241932      2.5699718235424549
    88   1      6.3486163884205631      9.3979021176667068       2.508064414455661
    89   1       6.192051060896917      11.018455634737577       52.12601611816681
    90   1      7.6112430597879319      13.654192965144645     0.28184298767160787
    91   1      8.0235213119383371      12.141614093671306      2.6442304539110117
    92   1      6.2553270449137122      14.643853494046006      2.7162615545090638
    93   1       6.187645012237363      16.636275755309804    0.021500392073453691
    94   1      8.0892856934507567       19.35045574651188      52.079128235302605
    95   1      7.8920248139952669      17.541702456432244      2.5260345193206653
    96   1      6.2169324903565899      20.230880786053824      2.7715882667674601
    97   1      6.3424435979217328      22.326747391955159      52.121393204901594
    98   1       7.872017699079751      24.792000665309377    0.039342043710717894
    99   1      7.8858424228769879      23.036555271169828      2.8616912694919079
   100   1      6.0720438634027927      25.886125774020613      2.4766406121672695
   101   1      6.2022525816104439      27.486803092001349      52.009731876204405
   102   1      7.7502806431613314      30.253587537241344      51.899958484739138
   103   1      7.8883689980761194      28.577558314516953      2.3763318436215175
   104   1        6.37567163535621      31.671492426760132      2.7463041870705811
   105   1      6.3963240441237286      33.246955399407888     0.20151963707067758
   106   1      8.0852938224084419      36.063766331619554    0.088876597806343549
   107   1      7.9905175079487849      34.209674178038313      2.6152303283408393
   108   1      6.2765578636207513      36.985888494322829      2.7904935943639693
   109   1      6.4028583373245818      38.853807816541526     0.50037997201500917
   110   1      8.1830679713218419       41.92215997766678    0.068026196133120553
   111   1      8.2135369629547359      39.985631620681325      2.7560841324333802
   112   1      6.4660251726204532      42.723746055627124      2.8622451455665638
   113   1       6.523346070554024      44.630168339227495     0.16442126248065086
   114   1      7.9815811369837357      47.231897403057758      52.114009723278841
   115   1      8.2244633309745652      45.219228590538762      2.7893756670264582
   116   1      6.3976401024010805      48.315219774739226      2.6392353760282599
   117   1      6.5186069551416868      50.116830848901103      52.059041516373043
   118   1      8.1615336174876632      52.589798309578896     0.20681971883365324
   119   1      7.8009012513859535      51.030751385958148      2.6374125036689779
   120   1      6.5647756417336742      53.813491817975368       2.721700495366703
   121   1       9.537293296619815   0.0092359693215218162      52.091467389534863
   122   1      11.257712090051287       2.806631145429475     0.15560929824389985
   123   1      11.185915240392271     0.85960327896601685       2.636866607082287
   124   1      9.9525390842937771      3.9004543738287167      2.8376792093026864
   125   1      9.6612349464067542      5.6969694337329155     0.30340126629722081
   126   1      11.135295578224495      8.2018341947570761      52.108440663408906
   127   1      11.075740710726066      6.5472517704070841      2.7325539011460531
   128   1      9.8084699670743518      9.4555284483980042      2.4456281820247279
   129   1      9.4105423066255494      11.197592073484886     0.18913195655440795
   130   1      10.957304670996681      13.973309043961153      51.972125288836558
   131   1      11.306821348743997      12.054000105879682      2.6552599521679383
   132   1      9.4073869176883154      14.785204288678363      2.6099201860682357
   133   1      9.5352415038429363      16.848410900431571      52.126466882532711
   134   1      10.948521855735301      19.487400512933093     0.12081590099700043
   135   1      11.204780485283624      17.805416926250878      2.4486626452270892
   136   1      9.4715139729891167      20.277453400418612      2.5956274710157383
   137   1      9.4390340406779796      22.227537364634696     0.18134536223759809
   138   1      11.027834375867345      25.058155897639228      0.1437899988675006
   139   1      11.038995517071017       23.19278431348949      2.7392801223171332
   140   1      9.2937187869893201      25.910898997666724      2.6244111243488732
   141   1      9.5978559111958699      27.739988800928163      52.006613005226392
   142   1      11.031091854373706      30.713510318794551     0.11126165650203926
   143   1      10.904598953404946      28.749815823856203       2.669706560845563
   144   1      9.3751189324033355      31.473281905222407      2.4859455813860043
   145   1      9.4932762962658543      33.219778115132385      52.076234768459436
   146   1      11.276749803327691      36.178425410210863      51.859877269702878
   147   1      11.345578144474104      34.522009126848332      2.2282872700682135
   148   1      9.5555138890429703      36.924351168419236      2.7277880735776341
   149   1      9.5665594908358074      38.973400033294872      52.021477865109681
   150   1      11.400766432199418      41.796405400521913     0.03866408124916642
   151   1      11.499279603813152      39.852834809459857      2.7338490340543098
   152   1      9.7565579949879435      42.628182195913006      2.5508826211267706
   153   1      9.6798400989669116      44.482027911034571    0.012893311073805135
   154   1      11.430575176549077      47.246995152494428     0.24777786844909708
   155   1      11.450617624910496      45.276986496250267      2.5369462504295175
   156   1      9.4026454448047883      48.171378266765139      2.4592682281237481
   157   1      9.6687837655452196      49.888717470303206      52.048509516212775
   158   1      11.174628305173401      52.700529593232865    0.046800758092799113
   159   1      11.065487131256786      50.854837449512218      2.5518812884681079
   160   1      9.6783563234557555       53.63430814742722      2.5903142425743058
   161   1      12.803810279470577      55.286324005372087      52.021698592561172
   162   1      14.438157771874177      2.7964275451916802      52.123362352916999
   163   1      14.634459506502777     0.87762804051125343      2.3918006766959463
   164   1      13.022053412813323       3.670758335059352      2.6877087281574177
   165   1      12.693175226813297      5.6046035736701061     0.23747038527395004
   166   1      14.566148089899684      8.2672085136107647     0.15303071834404242
   167   1      14.424195509414114      6.3159195469758664      2.5053343005056568
   168   1      12.945237579994512      9.2833935305549939      2.5924624804209797
   169   1      12.674713704771705      11.064005847665458     0.10380158787586101
   170   1      14.296374269456839       13.83212338975706     0.20980011673926013
   171   1      14.250904626594822      11.888522528801762      2.3551473680203263
   172   1      12.508154061613215      14.764926733684952      2.3120480391566343
   173   1      12.665569837327602      16.697947676829106      52.091498369626542
   174   1      14.027890294955245        19.3290062384247     0.29680073780103594
   175   1      14.272212896644451       17.29563239852455      2.6272882654225254
   176   1      12.462807621112933      20.329569717628758       2.650915133886663
   177   1      12.662423270282849      22.179832037134123     0.13355507743698852
   178   1        14.5103902504821      24.968920280712254     0.17443813670788205
   179   1      14.342488976933433      22.938722660584972      2.6068529123651745
   180   1      12.717467846984993      26.133548800689226       2.565561993638521
   181   1      12.662195265408798      27.863842537551371      51.943365984270613
   182   1      14.567462256840644      30.424826953685184    0.038054998372745535
   183   1      14.494793050881329      28.585295740648196      2.7212961165799205
   184   1      12.724749621427682      31.539863471030561      2.7182833009254468
   185   1      12.997566607511565       33.26439455109486    0.022938497699861816
   186   1       14.56399749217077      36.076683289879995      51.979350108553213
   187   1      14.477637247833204      34.287402355970926      2.5997951268477775
   188   1      13.006881965983409      37.198907976393023      2.5355103775797661
   189   1      13.062674941198177      38.900209065080332   0.0012293534904424636
   190   1      14.490083569170546      41.647381871506049    0.037630686426179748
   191   1      14.570740869550377      39.997234780912841      2.5344111998126735
   192   1      12.747750563663768      42.629304700621041      2.5772821823787231
   193   1      13.004869910006176      44.312626182240187      52.123408236218872
   194   1      14.419272242398653      47.033781293265491     0.14528426932091137
   195   1       14.67150074878367      45.184943173857199      2.8521990195305302
   196   1       13.04554679143102      48.310226660743801      2.4491404815135893
   197   1      12.950277936262223      50.281277214957605   0.0075055021836426695
   198   1      14.834645610501846      52.704126896140188        51.8301153739162
   199   1      14.672014585354953      50.859677283544904       2.461245035765812
   200   1      12.739617561748668      53.525561562139998      2.5295625864589621
   201   1      16.169209822763836      55.495486626008748      51.989945624068412
   202   1      17.676588757418319       2.673325603913641      0.4380715218681927
   203   1      17.496337954329075     0.67675512852261344      2.7885066228948974
   204   1      16.063149633442677      3.5016046251659896      2.7496622650603189
   205   1       16.06179311871437      5.4751644787539844     0.16971568811355667
   206   1      17.754929084850108      8.3240359319006085      52.124662024882483
   207   1      17.482984674552899      6.3117723188009265      2.5312107586272292
   208   1      16.319243279972383      9.3952643583183288      2.4887643453736841
   209   1       16.07806206515583      11.337876691464439     0.11084983456733905
   210   1      17.764105972969787      14.028863734990519      52.045409620564868
   211   1      17.599106718928098      12.074779749674166      2.5491871530568613
   212   1      15.857580741985869      14.512732821688344      2.6632644188965799
   213   1      15.781214104937479      16.719147081315054     0.18526904529274874
   214   1      17.395980119512153       19.38821177363366     0.20630197142886339
   215   1      17.320000399239902      17.271336110796721       2.710234400440771
   216   1      15.965730732508769      20.078040660571247      2.7559438050502094
   217   1      16.023659918659039      22.366533079716245      52.019685512518791
   218   1      17.717345151745949      24.881122991701741      51.840653195737772
   219   1      17.561046754003787      23.342385329173378      2.5426945303842174
   220   1      16.063107255975179      25.984375138251245      2.7521337510963706
   221   1      16.184601576147383       27.75225334649911       52.10936595025408
   222   1      17.912895374267819      30.701672523731727      52.040413758289702
   223   1      17.625139498362092      28.755755539067511      2.5490605042709955
   224   1      15.919703174898901      31.496799108791521      2.7668040905235145
   225   1      16.069442415946749      33.334236347485621    0.045609030304461708
   226   1      17.640073350799817      36.233774287732778      52.094808821336692
   227   1      17.937847150936392      34.205690645306213      2.6088911975331524
   228   1      16.372708435933138      37.322659274138502      2.4703874229446279
   229   1       16.16824780849516      38.841353341039181      52.074049347098715
   230   1      17.658964388195383      41.601422832530154      51.921857796289693
   231   1      17.878881556105561      39.971120292327825      2.5462972146505938
   232   1      16.072710812268031      42.655263289065402      2.6164848104274498
   233   1      16.029239298772573      44.211389067816697      52.125717936890176
   234   1      17.953964101784806      47.153994178747361     0.22275907018555988
   235   1      18.032282883111385      45.547107883454323      2.8755750161677471
   236   1      15.950391114134078      48.052659779117633      2.7578425127972026
   237   1      16.324185490962353      49.804240629456174     0.15400172671133205
   238   1      17.935482293531436      52.585203117283804      51.849451976409263
   239   1      17.754071725178392      50.794616910384491      2.5801476973167365
   240   1      16.088952001473224      53.562511509261242      2.6052238904370131
   241   1      19.153762382163485      55.528769652379573     0.27194647065059147
   242   1       21.11128006090188      2.9053872266545815    0.030218707241688004
   243   1      20.747972097850312     0.96988282797694469      2.4858395666977784
   244   1      19.377133970186339      3.6012919422146297      2.5768398264993349
   245   1      19.320910863622313      5.5882175343572964      0.1261404342963269
   246   1      20.881349827188252      8.2456830070426044     0.06981052933856377
   247   1      20.786515295191663      6.4147476039821809       2.427299135551523
   248   1      19.388651188081578      9.3006474321643449      2.6025531931177928
   249   1      19.211315989487311      11.114404411485413    0.016346749651716279
   250   1      20.871184827305154      13.665468323413638       52.00812721676337
   251   1      20.508420125024692      12.047779104790036      2.5357836095202964
   252   1      19.011969248300645      14.668292165106779      2.8336690353729552
   253   1      19.076974017008876      16.816347561912185   0.0022821751985084111
   254   1      20.629881816702145      19.392956589877233     0.20483970575706364
   255   1        20.6374249287392      17.646188611621948      2.4642362129637161
   256   1      19.236546493726753      20.501378291718016      2.6615973495811112
   257   1      19.106771160593752      22.102571078296531      52.077299947904919
   258   1      20.917286943288488      25.085591844832653       51.97686674648007
   259   1      20.694254925374619      23.269288287768326      2.5046769800003359
   260   1      19.324670413791235      26.133011972865862      2.5578556797569014
   261   1      19.380931484020881      27.521743901813689       52.05798124838784
   262   1      21.251337097182379      30.704886018283435    0.098008890149006128
   263   1      20.776690793373621      28.862777933470593      2.5675217497706431
   264   1      19.442434553093555      31.435398428976498       2.378804945102075
   265   1      19.392018470082117      33.446459794678006      52.095766323607521
   266   1      20.978752219955755      36.197093501856884      51.853532726070348
   267   1      21.175154720633703      34.175852658994046      2.5159995409765963
   268   1      19.454177764685543      37.033094936166265      2.4152546505192092
   269   1      19.381342176102535      38.946311596617079      52.058970078543432
   270   1      21.108721447420603      41.687464572172878      52.091824848447125
   271   1      20.898079193523049      39.659724739104099      2.3878075384641453
   272   1      19.252993896340577      42.658554441411034      2.6557268536437997
   273   1       19.16913863673177      44.272079708324199    0.044250459595961376
   274   1      20.921649194891693      47.406291099269744      52.075836046241278
   275   1      21.107677001847744      45.430546332783251      2.5187726744382433
   276   1      19.216499516444834      48.178124271848461      2.6650605992502023
   277   1      19.299223842755328      49.989274013815333      52.045777997613456
   278   1      20.854929808200655      52.719055166494613      51.963642944658631
   279   1      20.877284421268509       50.84724614341394      2.4743281690309096
   280   1      18.965340613566482       53.48548853281153      2.6020043563388882
   281   1      22.396829071965215      55.426438974759812      51.953343356690127
   282   1      24.279164772264128      2.8283982740287823      52.086357896525612
   283   1      23.770076170127645     0.91232614020774594      2.6336193286027361
   284   1      22.443778933739068      3.8027468072129049      2.6362806531458416
   285   1      22.704281365924331      5.6289585184734134      52.126585349717807
   286   1       23.89195449126197      8.2643103211004387      52.052538549392445
   287   1      23.853852216791807      6.5459546957430801      2.5739278557467689
   288   1      22.509840089531778      9.2934866219590528      2.6486158131180977
   289   1      22.357868444938028      11.093146546692255      52.008861397654513
   290   1      23.841801026481196      13.564730764872799      52.090650162902591
   291   1       24.11027444984337      11.811180895137502      2.6551391159668842
   292   1      22.420278024415477      14.538513680431736      2.4683898123340864
   293   1      22.296664052966509      16.747465346556773    0.035381677220034699
   294   1       24.01891279489934      19.286028127435181      52.061822811602291
   295   1      23.871789522612801      17.306532479942746      2.5551077719977915
   296   1      22.325634410766241      20.356705680735143      2.6357005226457044
   297   1      22.427971989686721       22.03703405153254      51.762973811865663
   298   1      23.885153164685651      25.082608131220116       51.98955809130657
   299   1      24.051914924776273      23.044584649420418      2.3590585070906123
   300   1      22.704104980380784      26.188913056675034      2.5511235885017229
   301   1      22.619545595993475      27.925756534774919   0.0075150677738175598
   302   1      24.391786325390321       30.78171294188402       52.05792315732856
   303   1      24.200473771528866      28.783329742056434      2.5568737266994308
   304   1       22.64832112088207      31.645204032825465      2.3043107471894779
   305   1      22.806796227244657      33.195924070107736      51.886675397278296
   306   1      24.244003581128069      36.351251966586858      51.881036977826803
   307   1      24.330339386905884      34.346222763478451      2.4875685616330205
   308   1      22.457445333894452      36.940511256226237      2.6322373220957793
   309   1      22.570865192538914      39.007868619493941      51.924078205286435
   310   1      24.246182566580078      41.880718382911226      52.100855211920688
   311   1      24.025647524704837      39.792250306750311      2.6709442203170748
   312   1      22.729166727807733      42.833199075318007      2.6060681830426056
   313   1      22.588147979950076      44.629525926308048      51.925022476164834
   314   1      24.009121886824826      47.472411685077873     0.19800566712123596
   315   1      24.274067576526122      45.430257443996872      2.6154641624311039
   316   1      22.458606668096635      48.078558317755615      2.7452247677251571
   317   1      22.194810746563604      50.315596532882729      51.992373539566792
   318   1       24.03492705574784       52.93492429665379   0.0073643999112494489
   319   1      24.172663567400246      51.380156154766759       2.561796206312279
   320   1      22.287283671811487      53.742434399136634      2.5438322304322849
   321   1      25.427374033157189      55.528167808972121     0.30672843730804705
   322   1      27.181795885514777      2.8878694973691292       51.91377833110456
   323   1      26.974077098189799      1.0202904024478829       2.612202352708815
   324   1      25.568375770574178      3.5945677974489949      2.7335560410488711
   325   1      25.644293564908228      5.6954018641293738     0.12291403168170144
   326   1      27.162961278337093       8.281238609931318     0.08801501403337611
   327   1      27.554202378954976      6.5401656945180484      2.7178819418828333
   328   1      25.468404160131737      8.8571986752938248      2.6967325343141542
   329   1      25.425162666289523      11.054763249852618      51.861013866839578
   330   1      26.963616027905264      13.696381137651105      52.068559776589396
   331   1      27.263129452532421       11.73993849843513      2.8982492234999659
   332   1      25.711887444727548      14.440213306911742      2.7401493124964293
   333   1      25.252156462561164      16.423774930550906    0.039289669392229366
   334   1      27.637602031243794      19.504107129515038    0.034312852987815938
   335   1      27.259265100040984      17.426115062650709      2.3740828554664457
   336   1      25.623323742515872      20.263710339931979      2.4483872826597537
   337   1      25.624705373604591      22.187350402838131      51.979782373999868
   338   1      27.221696608650745      25.051432791484967      52.068492599865245
   339   1      27.374915565898444      23.153222823114781      2.4526306324841083
   340   1      25.746640624556125       26.05044381522384      2.4652852815715898
   341   1      25.683834340267161       27.89246649464398      51.899020498971566
   342   1       27.74422904990967      30.864864305645245    0.022477016987450037
   343   1      27.333487772191837      28.875242535362322      2.4481600734577635
   344   1      25.874402708878886       31.70990782751441      2.4339265324686861
   345   1      26.088113592703017       33.36158692609272      51.966116343734484
   346   1      27.495093550680092      36.209219703759821      52.019588609554418
   347   1      27.251238870833284      34.337411480336954      2.4431254170778738
   348   1      25.715751310016508      37.307412140724601      2.4969013385997481
   349   1      25.606893332052262      39.077221155316316      51.888692033078925
   350   1      27.397163925929629       41.72211447202946      52.033473146984825
   351   1      27.070938882634138      39.994108965757349      2.4951964613469908
   352   1      25.738457360597696      42.419502635882139      2.4754336005959581
   353   1      25.760411812301626      44.569402221886584       52.04971919212845
   354   1      27.117177076723806      47.306934602480446      52.048866832571008
   355   1      27.211452699828261      45.232394443461054      2.4776849877552909
   356   1      25.621192410564582      48.450333299140013      2.5897749152315996
   357   1       25.46172628444867      50.349914961931212    0.051480804774318691
   358   1      27.016213983849227      53.143718399557734     0.37992039592827026
   359   1       27.42748754796926      51.191755785857403      2.5606851718908317