dump/Mg_500_0/steps_31 (written by ASE) 

4000 	 atoms 
1  atom types
0.0      32.100000000000001  xlo xhi
0.0      55.598830921999998  ylo yhi
0.0      52.130399999999995  zlo zhi


Atoms 

     1   1     0.14930184001962737      55.509263217143975      51.767992173092559
     2   1      1.7235893169864347      2.5793927673900239      52.098735772060962
     3   1      1.2742411798047573      1.0212180213642625      2.4969352572271752
     4   1    0.021758947794524298       3.895257916465479      2.1971473262205103
     5   1    0.078141438471610841      5.6588870686472124      52.038552313208648
     6   1      1.7771612847427851      8.2577763128823243   0.0062854023636312144
     7   1      1.6698180717165656      6.4111362562166381       2.627166372383019
     8   1      0.1229157284150469      9.2879563222976227      2.5337146767543692
     9   1      31.927533235973417      10.789582840238646      51.899167383849374
    10   1      1.7808255114663663      13.729959350902181    0.030063163270655054
    11   1      1.7733374142441103       11.81839791158883      2.5035723010703519
    12   1     0.22013669059126742      14.543390286962756      2.5459981496971613
    13   1     0.29114405063594806      16.512013936660171      52.106510622221009
    14   1      1.6345836677616432       19.35528838218389      52.024288675668373
    15   1      1.7842038053729423      17.730666956497487      2.5303770231575657
    16   1    0.033934122193626508      20.489331263141548       2.374901235679054
    17   1     0.20943381536673542       22.31270324136463      52.065247060031119
    18   1       1.398335360868795      25.245069395980611      0.2418274139647742
    19   1       2.079661631792967      23.028248632825253        2.50306049661648
    20   1     0.26206893074043075      25.985719582137879      2.8300554010291683
    21   1      32.054683212559254      27.979831488258235     0.15971670134662858
    22   1      1.8240596254375194      30.593382180002745    0.027898850110059974
    23   1      1.5680848223356767      28.838263516124623      2.7730064131098913
    24   1      32.025301594427013      31.418987452385309      2.6302144368531901
    25   1      31.987245961520834      33.416257485614068     0.15971077701097633
    26   1      1.5694311592710424      36.158260293928372     0.24148736725761524
    27   1      1.6305004552814257      34.218622670842151      2.6467177440269367
    28   1      31.982671985487084      37.102387291511207       2.591953589015767
    29   1    0.085126476401117104      39.457800813202091     0.17831801970231939
    30   1       1.504028249868129      41.894229504689413      51.834297017574649
    31   1      1.5889036568694497      39.635005438427783      2.6621486651118036
    32   1      31.864256479712711      42.723269113836785      2.4322121737944777
    33   1      31.961730478839911      44.603069693274932      52.088536657912925
    34   1      1.4481769165362677      47.519990029984108      52.090939020531174
    35   1      1.4999128720938684      45.521694986025103      2.4180113522922122
    36   1      32.063010501481472      48.035153085950697      2.6100656346815776
    37   1      31.865468536434726      49.901414423345472    0.090334683394426976
    38   1      1.4464790875736324       52.69617004599349     0.14766634276319091
    39   1      1.5637873580400805      50.842437842408991      2.4921641711580498
    40   1      31.927061987827436      53.431147325290688       2.387280175911449
    41   1      3.2547888675619632      55.405825657871887      52.000795202840649
    42   1      4.8888742916587145      3.0630865991913718      51.998683564139291
    43   1      4.8975322762084907     0.97333374897830149      2.6692796099646796
    44   1      3.3296548874626661      3.5882041439349068      2.3802479335102342
    45   1       3.216620860822172      5.5569738170825911      51.760046107111592
    46   1       4.864645332536659      8.2619798881635003      52.025527816244548
    47   1      4.6819186302699016      6.1979629046817166      2.5303651069118471
    48   1      3.3175997309645928      9.1705527088489198        2.61209335557214
    49   1      3.2530280495223201      11.134435533183282     0.11446383393266843
    50   1      5.0977461629199183      13.862654662638818      51.731593052498745
    51   1      5.0141828798927817      12.120525152806019      2.6234887767180504
    52   1      3.2334803277598816      14.793414662824443      2.4729563204659084
    53   1       3.505600242994853      16.419409323861544      51.977554316147945
    54   1      4.6335596935989276       19.55771413487486       52.01847701562312
    55   1      4.7346827951504906      17.770180129357009      2.5981737472229995
    56   1      3.2305274368123271      20.488115925011922       2.491392895893954
    57   1      3.4316222528164047      22.124619214106662      52.122374772941377
    58   1       4.744597297515754      25.049756525034638     0.12431100777609864
    59   1      4.9381999832357897      23.480950787840225      2.8754498650126945
    60   1      3.3258679413137129      25.962361892607788      2.8125400788073773
    61   1      3.1543754846036132      27.829971444424768     0.17132928875708298
    62   1      4.7958769457209378      30.518836443005696    0.095947343879201105
    63   1      4.8544684054290892      28.949752804694032       2.618460545952443
    64   1      3.0772458819203057      31.563627758172139      3.0015935902101853
    65   1      3.0106752817357605      33.398114413289697     0.11808693142045132
    66   1      4.8468915593712252      36.074929353265802    0.020716159513492871
    67   1      4.7748041020044356      34.329492548078136      2.6414571428428033
    68   1      3.3063287940033788      37.039597832831411      2.8176818783895237
    69   1      3.1118492338682415      39.067464802489489    0.011312964894036192
    70   1      4.3672765086597467      41.630867437323829      52.108584308964225
    71   1      4.8141608232379216      39.849919020573388      2.7983448256038517
    72   1      2.9301124521676845      42.275639588127284      2.6464843283563497
    73   1       3.074117960026872      44.712747336333528       51.88199794829719
    74   1      4.5242481881289205      47.284881549398897      52.031735513628142
    75   1      4.5750905031143754      45.516585897735681      2.4556977019882167
    76   1       3.210995679189804       48.30826293544893        2.57954050089366
    77   1      3.1713990075818814      50.086003635503531      51.851432602370153
    78   1      4.7919187278773503      52.846017889558595    0.011917993602016843
    79   1      4.7089250962097831       51.02792382894858      2.5432500658190516
    80   1      2.7808192015880575      53.800954184017996      2.4231754235876943
    81   1      6.2769106547062385     0.10949714175739896      51.995822674990457
    82   1      7.8787898211798337      2.7714770353094722      51.931039707245908
    83   1      7.8887280660940551      0.9480507683919005       2.526001077275982
    84   1      6.4360924796575887      3.7254742968479859      2.4862744268252723
    85   1      6.3914383959543448      5.5716505409677781      51.819754949442313
    86   1      8.0557621777980692      8.2926977211517503    0.044998013491254998
    87   1      7.7982763301293225      6.5520795751252541      2.5846040156371268
    88   1      6.3989254683303596      9.3574345020963055      2.6423994956942156
    89   1      6.6001186769101947      10.993418021105782    0.015588239331690791
    90   1      7.9890814248841018      13.968262278015219    0.048204803773427701
    91   1      8.0528447571396491      11.949774678549138      2.7472356254393868
    92   1      6.3087690022024114      14.995603448010353      2.6214722541617377
    93   1      6.5248913176230863      16.773057383490542      0.1451646458322419
    94   1       8.229220158195691      19.584364289819764     0.22308607180108586
    95   1      7.9710068824568117      17.764157370306677      2.7328012509545174
    96   1      6.5203290976849049      20.325180222366718      2.7372997882057826
    97   1      6.5475856986018579      22.249461572890429    0.084473635998117663
    98   1      8.0166527141443016      24.818527539443568     0.20650981923996739
    99   1      8.2152264810174742      23.129659112822711      2.8847526218480004
   100   1      6.5458769985834016      26.143062902306973      2.6325289941998364
   101   1      6.4355682830741401      27.622924311433739     0.15300659059829561
   102   1      8.0220617151388183      30.473782065656803     0.17243692930965193
   103   1      8.2347436182445382      28.713302758720801      2.6492331257484261
   104   1      6.1374036661730695      31.861181331698731      2.5407721595085269
   105   1      6.2369708325524922      33.440673515567234       52.03681889747142
   106   1      8.1171027553820938      35.998632466551243    0.024243086100952563
   107   1      7.8259996696826084      34.332341730414939      2.6700246104752643
   108   1      6.4709350693499799      37.006808121187575      2.7437704953442394
   109   1      6.2475733945314342       38.94575342359412      0.2213971550533087
   110   1      7.8857995343366287      41.574584365407262     0.12194863135653355
   111   1      7.9714514052852152      40.043791625217779      2.5230345390946094
   112   1       5.996818287365703      42.767015404314996      2.5646936126394078
   113   1      6.1683918904666664      44.479719493175139      51.988390100710902
   114   1      7.7286228154648633      47.356269941986383       52.03623374941111
   115   1      7.7884353566711706       45.27481600643732      2.5827586809966037
   116   1      6.2493439734041525      48.300782325496584      2.8941090754737098
   117   1      6.0493964489970793      49.976534734625851      52.083047964940512
   118   1      7.9680221557841309      52.998079754565794      51.974333306320524
   119   1      7.8834657803312531      50.976390968201393       2.415142556368139
   120   1       6.193522742036242      53.821261592916549       2.589003050430831
   121   1      9.6795180508276921     0.11951056158095995      52.075035364586434
   122   1      11.262316055466609      2.8427020040549182    0.027437689774565118
   123   1      11.172763155708436      1.0429892173011903      2.6716615971995017
   124   1      9.6832282699893941      3.7193996602756072      2.3398941026862095
   125   1      9.7790850705726733      5.6597150511129417      51.738146886388215
   126   1      10.963399215193686      8.4031859039788817     0.23106808025482689
   127   1      11.169237462047434      6.3524793504619694      2.4044142769175574
   128   1      9.5629148127726111      9.3914680149401182      2.5951554389872631
   129   1      9.5981465303114906      11.123340605813796       52.04920872885954
   130   1      11.172053726041346      14.117804142674069      52.101143098912353
   131   1      11.161951916847086      12.164169283326935      2.7153123545122599
   132   1      9.3265027392835531      14.845208016920658      2.5592922465986025
   133   1      9.6131326597870501      16.799699790925231     0.22579059752800706
   134   1       11.41259650574286      19.477346614548328      52.122560974250625
   135   1      11.357855779296317      17.612007502522047      2.6406106904696078
   136   1      9.8564093600034788      20.387229045923554      2.8395993348433803
   137   1      9.7785199779633967      22.127117714185871    0.055070076159823823
   138   1      11.400836223174801       25.00875639493556     0.18556370476428224
   139   1      11.357541426912025      23.261424778917608       2.872650202513396
   140   1      9.7917121842815185      25.718287588413364      2.7948193546991535
   141   1      9.6853915263778063      27.709514787606071     0.25442346199639509
   142   1      11.193482355578196      30.458809867785508     0.19361153182804738
   143   1      11.335375971625837      28.744857579882819      2.9313691312458232
   144   1      9.6473628677349286      31.467128428021784       2.918211411386177
   145   1      9.5449254506737855      33.351700486941944     0.28416155537771043
   146   1      11.148189146872671      36.030756548161079    0.014442750778415749
   147   1      11.175810654066483      34.423636117504437      2.7302735493010188
   148   1        9.51255775122379      37.277657682213999       2.575723825358553
   149   1      9.4837798562737579      39.039009538032005    0.062914969338203619
   150   1      11.093132638650799      41.739244542654554    0.069279885930190466
   151   1      11.182669832755979      40.058047589672078      2.7268892569610652
   152   1      9.4076284801546901      42.597174837261697      2.7842657892958425
   153   1      9.4005964688826094      44.182222543279615      0.2492121126144502
   154   1      11.284628603575248      47.170745248058708      51.866793890834764
   155   1      11.202070509958627         45.286135939207      2.6823082642901417
   156   1      9.5025312155546562      47.773239154357803      2.4340194701864188
   157   1      9.6379733662912361      49.794192485015486      51.914740248802005
   158   1      11.150934454650926       52.82381636833491      52.098565366700363
   159   1      10.999075682499265      51.048935086534243      2.7323019602127427
   160   1      9.3211050690641422      53.936071901383393      2.8099846910659041
   161   1      12.709153377105636      55.484958123974891      0.1048090704006909
   162   1      14.262468382531141      2.6970587786678601     0.16556384288058815
   163   1      14.518086725891308     0.80125188840702832      2.6658645718062224
   164   1      12.931373181878127      3.7111844380082606      2.4890619803062783
   165   1      12.879393995737376       5.848496160652001      51.976440242057308
   166   1      14.732889969410822      8.7195447487708027      52.099978086323183
   167   1      14.522375085470015      6.6278479305371443      2.2389703975905264
   168   1      12.732674482629831      9.1982082921035211      2.5016323584589424
   169   1       12.68062097554221      10.922393615057507       52.12727199688414
   170   1      14.190625427789588      13.861689315782529     0.11796779588755309
   171   1      14.330138151600801      11.983370864595956       2.572719006681262
   172   1      12.670046327068231        14.8695520608149      2.4810210539638304
   173   1      13.000180385332387      16.772634978071054      51.907325092446669
   174   1      14.668865623663107      19.492409690124362     0.14759302082122877
   175   1      14.554914248026568      17.404521733242337      2.6020301992846662
   176   1      13.081276003474835      20.117816363220353      2.7520941603431393
   177   1      12.822285310714156      22.104880282729539     0.18021555483589974
   178   1       14.37092676993683      24.974190016262586     0.30879310822770711
   179   1      14.763811649476876      22.949558543825773      2.7030736114391698
   180   1      13.133315787884589      25.823231663727611      2.9006107177836369
   181   1       12.71741656754007      27.811858586692441     0.13167892860939653
   182   1      14.312723606899761      30.721357269760372     0.40502658822964832
   183   1      14.409712127332538      28.667217171222678      2.6011778500631113
   184   1      12.756590350698898      31.712305398553319        2.75479979074162
   185   1      12.814590438890262      33.498837887865179     0.26261732990082676
   186   1      14.278787019816416      36.214511430311518      52.016171947755048
   187   1      14.666682997060089      34.412196223554993      2.5883212797522637
   188   1      12.733898866364132      37.311886298937971      2.6927055776193822
   189   1      12.612953721048131      38.945153178244254     0.09273045567314879
   190   1      14.271417577781349      41.704444748531714     0.13299851206427038
   191   1      14.348563390556034      39.824249488847855      2.7265672530132723
   192   1      12.777908076280855       42.69731266388942       2.661991305290301
   193   1      12.788057343199222      44.482102378338958    0.064682035977340735
   194   1      14.405522701024207      47.352180972104136       51.99521870033545
   195   1      14.419077516033825      45.579137413191681       2.533711725841044
   196   1      12.635162545741931      47.954058207280639      2.4324691621251198
   197   1      12.659072464458564      50.069621718848474      52.117331740979118
   198   1      14.387834201996622      52.485123534391832      52.107004313597109
   199   1      14.148469431139659      51.302387695091738      2.8458540839255084
   200   1       12.69470349318752      53.821265351126421      2.6081389665366919
   201   1       15.81001923630712      55.113648557666053       52.03885743423286
   202   1      17.472561732669185       2.620047249716873    0.087506820306415226
   203   1       17.71142266352485     0.92674612306265913      2.4836975355923285
   204   1      15.976020328461331      3.8027438858400147      2.6807749020448557
   205   1      16.065361178953239      5.4404800861102567      52.083737228615121
   206   1      17.851435698177497      8.4650247405128685      51.945512105382285
   207   1      17.560849995620231      6.4540584360374043      2.2144913247079931
   208   1      16.409257849149533      9.3275412894792264      2.4357509653690075
   209   1      16.126568284718211      11.264315113023335    0.087725282088971068
   210   1      17.796927459664214      13.882721090137517    0.087123642052291381
   211   1      17.683387127388229      12.432036508156266       3.010455460473985
   212   1      16.022357374207424      14.822142333648056      2.4712010207295938
   213   1      16.071764871448217      16.399916923677392       52.06902533654543
   214   1       17.82971021931154      19.526403083703389    0.091186031812970775
   215   1      17.899067839089888      17.613370067757096      2.5135768634908606
   216   1      16.336908318936047      20.158593364176632      2.7600501416542258
   217   1      16.193206129958263      22.208092826206801     0.26439648985292685
   218   1      17.488379375203401       25.06710901638629     0.33638165946120646
   219   1      17.777538166082827      22.911836773931721      2.7355265613428337
   220   1      16.232284967517913      25.844630573368406       2.999753932353729
   221   1      15.725583085107628      27.860253772128406     0.35614691159496531
   222   1      17.605264000824121      30.502765460276496     0.11364801719173666
   223   1      17.374067892087041       28.82358514218021      2.6197237657093275
   224   1      15.957328556043791       31.66096789069633      2.6733565394252645
   225   1      15.843913257496219      33.422391695255001   0.0026590908893237616
   226   1      17.485067460205244      36.189879854383577    0.065968566891612859
   227   1      17.727460220975658      34.483704421279221       2.655477032236885
   228   1      16.006901993552624      37.038866160017491      2.8050418973826705
   229   1      16.068014385941002      39.088665876951715     0.22305848075704304
   230   1        17.7559550181955      41.697113805566595    0.028524116601999841
   231   1       17.71336753895973      39.935411991715583      2.5555633086036114
   232   1      15.918939554512631      42.594002483399748      2.2612545892012705
   233   1      15.763826807184428       44.26639472777719      51.847069031113641
   234   1       17.69842785055118      46.991561990932404      51.872091637626788
   235   1      17.403868699427044      45.228127530182341       2.093322339794498
   236   1      15.986266338045347      48.384491206536211        2.58536777418123
   237   1      16.093268124459239      50.089866305126712      52.045687969258069
   238   1      17.848621137764685      52.964592475938773      52.022751767905902
   239   1      17.505994723680917      50.883904482896114      2.3743395851628675
   240   1       16.13974053732025      53.592007213713494      2.6116244283870196
   241   1      19.349013552960439      55.535005252631755    0.080539207200817045
   242   1      20.887143763144305      2.7794251766955718     0.06386625901534794
   243   1      20.851424771335353     0.93093588258502979      2.7505946954134446
   244   1      19.288817676878232      3.7845240821947077      2.3742454845393919
   245   1       19.21934885075272       5.425242843526437      52.081347543417813
   246   1      20.783302387180733      8.3098355375803905      52.119451106386684
   247   1      20.816798426702757      6.4468262191428067      2.5485296519817084
   248   1      19.466303757631376      9.1822968372686802      2.4643401760733323
   249   1      19.557372658668093      11.099737805235286      52.028747360897839
   250   1      20.828341646808273      13.926548996472343      52.057119664010358
   251   1      20.993130227508093      12.053568226496848      2.4912303392196229
   252   1      19.572434029616577      14.975960477765723      2.8574688663664816
   253   1      19.194894481085033      16.562980587859382      52.100787996460674
   254   1      20.829134634358695      19.470734317468384     0.12477614232507823
   255   1      21.025942579057325      17.614247629254347      2.6649792633278087
   256   1      19.463265128680288      20.475476623150477      2.7813946027239327
   257   1      19.410289280646886      22.207014652058696     0.12568047751078804
   258   1      20.924552807857062      25.011168892168548      52.108315644806865
   259   1      20.912668140261282      23.311681882849999      2.3801823232655113
   260   1      19.056907511721842      26.286711203795242      2.6652609831823488
   261   1      19.354556758665126       27.93544334175321       52.05514241317865
   262   1      20.622179663864355      30.693911602589562    0.086449173801870616
   263   1      20.723714349120783      29.017381190749379      2.7583076385097134
   264   1      18.981415509363586      31.586892264067334      2.7149076386653515
   265   1       18.88255079190203      33.361846604386443     0.10590115678966189
   266   1      20.532688426557776       36.26217433232636      0.2560239016725725
   267   1      20.816249171736061      34.264482609894195      2.8294318601442701
   268   1      19.098571750615559      37.097876945023515      2.7504158900857409
   269   1      19.369886842473583      39.036655447928943    0.026297163602402442
   270   1      20.806296713700878      41.726015182007195      51.908427073304345
   271   1      20.981491258293687      39.825916575671769      2.5266470558173477
   272   1      19.240990982988812      42.620784910679539      2.4726550255983382
   273   1      19.521868585446818      44.623380971832638      51.858033076404368
   274   1      21.157616616504097      47.049242320812461       51.77348095099822
   275   1      20.846569946105923      45.348002509795627      2.6608764531812303
   276   1      19.048762110473486      47.965433097447082      2.4544825677437196
   277   1      19.247904529591537       49.96510186710983      52.083424206679965
   278   1       21.12685254844256      52.973851060471382     0.13122881257144656
   279   1      20.570445288069131      51.082108691391191      2.6094636646729099
   280   1      19.037025067731193      53.813995734723576      2.3747582618052272
   281   1      22.669501381846462     0.12427915597184609     0.14152956167366323
   282   1      24.083751015157535      2.6940881138731712      52.025964691849133
   283   1      24.088992010094262      1.0239345697374398      2.6607348450845461
   284   1      22.488332809954837      3.8236584801915297      2.6227137153784912
   285   1      22.608292263969943      5.4989956336609209       52.01602884520122
   286   1       24.05951867629447      8.2272138258410834      52.002763435531534
   287   1      24.107703060120574      6.2673288515069405      2.5565218096357571
   288   1      22.617591704688714      9.0192179181765244      2.4557418440577203
   289   1      22.764131270358153      10.925810422542002     0.12982430763728181
   290   1      24.128224551013822      14.005916016727298      52.086544691099334
   291   1      24.001066698964575      12.030540655832427      2.5017767944339786
   292   1      22.416951578336047       14.95662381027638       2.626209202042896
   293   1      22.475252528817713      16.647908918504804      52.030076024858538
   294   1      23.996576658711369       19.41143863264762    0.025440951610026595
   295   1      24.021053810547496      17.612112987584215      2.7247863472090694
   296   1      22.576836324886976       20.30765446258637      2.4502817894379048
   297   1      22.711820680935752      22.071832104525239      51.972086905858916
   298   1      23.938468997434036      25.098567515191615      51.947519285817528
   299   1      23.966602344367438      23.236248155254263      2.6281043772162676
   300   1      22.432385338168864      26.116432248199221      2.5388288273664723
   301   1      22.385396918721408      27.850374973305158    0.055168196500762323
   302   1      23.700112562090077      30.822982485778233      52.024640812980074
   303   1      23.746191252119928      28.922645050806192      2.8245988669343269
   304   1       22.18298853638235      31.548979491510632      2.7187269283499886
   305   1      22.423706849252955      33.364908937207716     0.32100990075261293
   306   1      24.091891011532478       36.21886531969016     0.19087783368425512
   307   1      23.899227846933716      34.123135530148602      2.8475482196854496
   308   1      22.445244114197166      37.032507278534212      2.6427774935772206
   309   1      22.425429511306337      38.954647720967706      52.055802445416944
   310   1      24.229471197487801      41.771539720019156      51.987403040089845
   311   1      24.057333409238883      39.687663376685954      2.4321413023998959
   312   1      22.474509657592183      42.357379107312582      2.5060919853652925
   313   1      22.546942098484465      44.340235169534083      52.006997211296685
   314   1      23.888681592693249      47.184348108884556      51.995509059109288
   315   1      23.942025477519636      45.578065682839494      2.4829702582346442
   316   1      22.019878479173617      48.201117667588981      2.4227275371023627
   317   1      22.604127299967725       50.17651864701137      51.809893392946357
   318   1      24.237638765037012      52.904209327341704     0.12275436901405712
   319   1      23.876217308256688      50.933936870512611      2.7276266266301996
   320   1      22.363638746635836      53.762313105400402      2.7037461620389358
   321   1      25.728818410454959      55.353291781644245      52.129311412652285
   322   1      27.218880154401745      2.6729241487793165       52.06050373349462
   323   1      27.367649591553846     0.72081185863577835      2.6838457139636058
   324   1      25.770479275245904      3.4979701484049306      2.4140956762775163
   325   1      25.715143443748321      5.4222145170645586       52.08121830715482
   326   1      27.343893414110227      8.4719069754943312      51.906343730158589
   327   1       27.31037535667712      6.4585303319724252       2.392974998401292
   328   1      25.806419376643763      9.2476008545524042      2.3611762448212885
   329   1      25.833336976184302      10.992715141677543      52.068501076026926
   330   1      27.292132300914446      13.717081943314021      51.918399376614666
   331   1      27.196118464887025      12.050857095874136      2.7604968308717335
   332   1      25.458794084363532      14.860787778263711      2.5153224022745171
   333   1        25.6723932577817        16.7339409882882      51.925779659159126
   334   1      27.137923301299956      19.436208310982881    0.049208692740531211
   335   1      27.297587397554288      17.408860968843147      2.7401718360403109
   336   1      25.926459270382775       20.16164769942192      2.7888610296981611
   337   1      25.680321314166392       22.25000818487948     0.11617869636873085
   338   1      27.273289333917369      25.119484266920544    0.058777392126610477
   339   1      27.283660369825256      23.233152270391425      2.5494156875399416
   340   1      25.491913102037742      26.171020897748249      2.5274298628013678
   341   1        25.3976595318526      28.134881147287135      52.099758933103018
   342   1      26.725911086151026      30.750693952416526      52.123635105518964
   343   1      26.932449926674664      28.815440761732614      2.6972873028961546
   344   1      25.333441643905914      31.598338108760704      2.6542364375810799
   345   1      25.441893186745055      33.480154415802069     0.24814659944548606
   346   1       27.19748915233076      36.088123555552599      52.114072041419291
   347   1      27.408662290365115      34.178061176266894      2.5186418206890488
   348   1      26.095004963903399      36.934658792261679      2.7785732242133552
   349   1      25.902110555291639      38.819065656185657      52.048056489813845
   350   1      27.156326080809521      41.572530325905568    0.013541307999226119
   351   1      27.539709808440438      39.830051075249742      2.5109157127376216
   352   1      25.413602848871317      42.329587220597695      2.5729701236298914
   353   1      25.651069073923964      44.679921921079604      51.843825019879468
   354   1      27.148803915001569      47.297593657197375      0.2789851336700197
   355   1      26.918326077107249      45.128599074986887      2.3323030821376922
   356   1      25.553577786306782      48.185231904331751      2.4019039752308577
   357   1      25.686551792116219      50.244533435558253        52.0771727962195
   358   1      27.290750271791385      52.957145879153359     0.12378200027065096
   359   1       27.20008897769252      51.105543146286294      2.6353401412023154