dump/Cu_400_0/steps_71 (written by ASE) 

2000 	 atoms 
1  atom types
0.0      25.526554800834361  xlo xhi
0.0              25.5265548  ylo yhi
0.0      36.100000000000001  zlo zhi


Atoms 

     1   1      25.363611729647538     0.21672959229373634     0.10102909158381419
     2   1      1.2093120395625643      1.4765283775915714      1.6941079425073788
     3   1       25.34738087435241      2.5995754098208423    0.063142740386876992
     4   1      1.1259347399330464       3.866356123304088      1.7244042411121534
     5   1      25.520545010161175      5.1342935652779884      35.965722448199593
     6   1      1.2293893151630044      6.3832983028229995      1.6911477218630455
     7   1    0.044128971922512014      7.6360351892336986      36.007577730432267
     8   1      1.3375970143727314       8.933094857502482      1.6668404704800885
     9   1      25.358386113705752      10.167928882164302     0.02325720476377454
    10   1       1.305751633097723      11.689314880830226      1.8506276485759496
    11   1    0.031171321672155153      12.773617844960111     0.14891512612571206
    12   1      1.2551752222293373      14.093505706898615       1.743595199895605
    13   1     0.15403014903876797      15.392753578194936      36.078845222900156
    14   1      1.4047739403052302      16.575485429665619      1.6500690825261035
    15   1     0.04833505923693087      17.874516874399884      36.054759482098966
    16   1      1.4339424665979141      19.095806044529041      1.8372711441052492
    17   1     0.12665132990879752      20.420666862995095       35.94061659345936
    18   1      1.1274148156866646      21.690800768956393       1.923849315558176
    19   1       25.49117153509189      22.970788388607723   0.0094672878785331538
    20   1      1.2025440272593757      24.187560984717532      1.8357166411295571
    21   1       2.369414010165285      25.500641021201613      36.012560225546643
    22   1      3.6881654061953832      1.2308007495095046       1.943430939719109
    23   1      2.5699487951156161      2.5014873288308643    0.030538818351737985
    24   1      3.8590428075330072       3.764491835185249      1.9035705806124612
    25   1      2.7153165689868377      5.3426227036636158     0.14070280091821122
    26   1      3.8890901858319724      6.3650539135650996      1.8999164827340111
    27   1      2.6136993325492464      7.8334090988653404      35.939662089839764
    28   1      3.8512393061448238      8.7551754285877283      1.9372871357938031
    29   1      2.5499679434629665      10.211176871594894      36.066784295588313
    30   1      3.8815974896876497      11.347843175112432      1.7774435859701143
    31   1      2.5613607712686144      12.903184505973853     0.10615564087859172
    32   1      3.8603716289515129      14.160354785470016      1.8949997984713036
    33   1      2.7468252514605465      15.255035031322285      36.009005980572724
    34   1      3.8940245666236062       16.77915408812396      1.6567382754563709
    35   1      2.6253483803403679      17.819734228392214      35.906554074248042
    36   1      3.8915762401813216      19.118263367952522      1.5728815354122154
    37   1      2.4415939224219896      20.423967503756572      36.061488387253426
    38   1      3.7480665301618261      21.637783357517069      1.6796456085563021
    39   1      2.4325349092103523      23.089977805915701    0.088800626333659233
    40   1      3.7554879786579973      24.194372387113724      1.7294359438599249
    41   1      4.9881614181708738    0.028541787426606225     0.10639304028705969
    42   1      6.3284865071424505      1.3245266169920717      1.8715898934592601
    43   1      4.9477727232828439      2.5238510185593199      36.043130737959586
    44   1      6.3924700224232263      3.7407065938971691      1.8011788117085177
    45   1      5.0782237843534137      5.0658796987264703    0.016705448816514951
    46   1      6.4242478436666692      6.4416356646906525      1.8713780514682878
    47   1      5.1255822087968772       7.665079997597549    0.077840594066878918
    48   1      6.3267894187698728      8.8847127131484207      1.7490443524929458
    49   1      5.1113616176658336      10.245469310254839      36.093592286866844
    50   1      6.4519919138242035      11.463391039476733      1.6796896669953072
    51   1      5.1472499001406158      12.736832708381259    0.036558242064359217
    52   1      6.4310359560879853       14.15098687226067      1.8199666687057174
    53   1      5.1587112347255619      15.317292655501559    0.020705438704226274
    54   1      6.4657901583292947       16.56280245499218      1.7173169444433023
    55   1      5.0406748409393973      17.797868488683793      35.957190290242885
    56   1       6.303299932928204      19.087608223975444      1.7297419748603475
    57   1      5.0005097255770083      20.454750647501349       36.02436413797593
    58   1      6.4409691217967389      21.626586680710375      1.7108458374974143
    59   1      4.9877769430010037      23.022541512277606      35.997776505670139
    60   1      6.4190959812526778      24.261724589728743      1.7170510660148222
    61   1      7.6871171013520856       25.46890908256383    0.084413953899616118
    62   1      8.7521178950978378      1.4945829175871459       1.608419255645912
    63   1      7.6052126594345077      2.6084461471971836      36.028208067053235
    64   1      9.0098013772674488      3.9682309524552632      1.8974577094018286
    65   1      7.5397527153940862      5.0424602564801075      36.098017871713871
    66   1      8.9521325816838928      6.5386338718997514      1.8194546377661032
    67   1      7.7908019068366787      7.6579547883438686    0.022564267121128967
    68   1       8.988762882767535      9.0010562522213764      1.8429407149302637
    69   1      7.7701612866005858      10.210506898545402     0.12984877788495633
    70   1       8.900261227919378      11.508430922714327      1.7729746835224551
    71   1      7.8838108780120599      12.844132520854174      35.951066805783483
    72   1      8.9609851725128422      14.181012506557639      1.8386254094181362
    73   1      7.4799034705660432      15.372446174524024      36.053025476794296
    74   1      8.8563183042775417      16.580564741284839      1.6957767534303003
    75   1      7.7747568198384007      17.843880110975967      36.046442381443242
    76   1      8.9021741822769407      19.276729476307853      1.6852672466562584
    77   1      7.6815724557837841      20.415987638158594      35.896801182493611
    78   1       8.937561564907698      21.761374273409629      1.7103397603353547
    79   1      7.6081364226945238      22.946268761766468    0.062965328932113887
    80   1      9.1270816427211852      24.411397647076836      1.8415643080503301
    81   1      10.197316277545893     0.11480742597355605      35.969460495210804
    82   1      11.247719322064301      1.3267226447197242      1.8437016474268604
    83   1      10.094612589869362      2.7056373529638327    0.021466635044873773
    84   1      11.439069972019428      3.8426111587208496      1.8132083890916186
    85   1      10.093701897348696      5.1348130187756267      36.026501495642357
    86   1        11.4059456586997      6.4271819114885762      1.9809569956721249
    87   1       10.19952741162221      7.6172441197237069      36.067539249978282
    88   1      11.418275648657438      8.9549655528448149       1.797643049634472
    89   1      10.222955963366354      10.217501056351825      35.962734250903132
    90   1      11.545396757782981      11.351358194973113      1.7233863543976673
    91   1      10.329342253363693      12.708383905612813      36.037723957512817
    92   1      11.551623660115713      13.967280616450907      1.4522518760398515
    93   1      10.048839984914359      15.378990284296352      36.084801334044705
    94   1      11.455319438757815      16.545558539268598       1.747056295753578
    95   1      10.280265827308801      17.832064474973411      36.058594787243827
    96   1      11.575544860747311      19.243208988411432      1.6281532666541241
    97   1      10.165622503365565      20.417096993811327      36.066568128776069
    98   1      11.340528004957346      21.703916110625627      1.7484704688261565
    99   1       10.06924836642178      23.009965729134368      36.021217605160132
   100   1      11.564467453175871      24.245824916552866      1.6698156238406692
   101   1      12.752164485792216      25.434491361748183      36.044673424564955
   102   1      14.060056174683648      1.2567113261637328      1.7820421422692105
   103   1      12.795082614988923      2.4214894368806608    0.078906823017109634
   104   1      14.029639954105409      3.7117792651894499      1.7012315762163428
   105   1      12.754745320644695      5.0360991729415625     0.12996172178291102
   106   1      13.966634374944963      6.3419282761671472      1.8357049676556023
   107   1      12.770704241970769      7.5292575172133214     0.18636973622275277
   108   1      14.181482488759219       8.886929847280042      1.7989445879500428
   109   1      12.722295906607929      10.179618495435445      0.1425443626365448
   110   1      14.077579948661697      11.494887062470511      1.6710986692772527
   111   1      12.836888694917768      12.758079276296659      36.089745889285254
   112   1      14.082595110379543      14.175458978837794      1.6908056167513441
   113   1      12.700900505636298      15.302648041803375      35.869280780861317
   114   1       14.04971094637426      16.595228332736902      1.7957068352055319
   115   1      12.792669145997408      17.830393975175028    0.099168693908791433
   116   1      13.907912376149108      19.275520223092453      1.7724490170888891
   117   1      12.844622832306648       20.40256015242149      35.918558063104612
   118   1      13.978403584370181      21.709277059015658      1.7670824244251451
   119   1      12.709705761191266      22.931608611719628    0.092117684193681326
   120   1      14.103701836351551      24.285032573448916       1.683346003776512
   121   1       15.26854009102685    0.010079714753478422      35.882430807070833
   122   1      16.562729737233571      1.2408171106996677       1.733326353216966
   123   1      15.350215717982429      2.6203153870281346      36.010161850799271
   124   1      16.562418939125834      3.7554402767199253      1.6825820480846359
   125   1      15.195806884424302      5.1771436692109605    0.084213604404328596
   126   1      16.664477465435205      6.2427243707326028      1.9050651307819182
   127   1      15.335990067051847      7.6503236058215842    0.096275614384603733
   128   1      16.584245948168022      8.8788629503420484      1.7807189762069575
   129   1      15.247739268416179      10.196683370914384    0.067527496311231575
   130   1      16.434947720842192      11.393169510859344      1.8461090042566637
   131   1      15.273420408287683       12.85329787255467      35.961924050551708
   132   1      16.610932160408581      14.041767711226491      1.7499618695296486
   133   1      15.266211189795781      15.431189029232929      35.934568012611237
   134   1      16.544300713466377      16.683682146152929      1.7440977778243238
   135   1      15.310563138880466      17.926175654430025    0.036549617538878552
   136   1      16.643416404257142       19.08152366040936      1.8516965854161638
   137   1      15.498001381228086      20.549256046743519      36.036259639864575
   138   1      16.662668899426549      21.523487321268636      1.7749978659578216
   139   1      15.290223445131829      22.932834113480386      36.002062636768535
   140   1      16.625408194346104      24.225921817262229      1.7999694653991001
   141   1      17.907893718472994      25.476440885011129      35.992161852600077
   142   1      19.142419913084275      1.3533996399217518      1.8673841311100206
   143   1      17.903879764608401       2.444111340233424    0.036555902837005647
   144   1      19.139652984931885      3.7238732530236232      1.7202351250876176
   145   1       17.85948386563404      4.9858184663040213     0.01878111115806861
   146   1      19.080100037143016      6.3686273774133424      1.8794873685164708
   147   1      17.945066797740601      7.5548083028618196   0.0027965739789237885
   148   1      19.174653656210708      8.8999273571488029      1.8380550827867621
   149   1      17.967340503467604       10.26771925518592    0.043588006337427154
   150   1      19.245496731537184      11.433279141932484      1.9564931728616433
   151   1      17.861450125981456       12.78235359019498    0.018004242005645203
   152   1      19.072106975047511      14.056663137211981      1.8842012458175661
   153   1      17.874860114791485      15.343373834843081     0.17203185037019458
   154   1      19.159811205028745      16.797445419032737      1.7819720347585639
   155   1      17.966866480558245      17.923730228059334      36.029225563948479
   156   1      19.216784120734317      19.101298821208726      1.8343450936251444
   157   1       18.04649106958027       20.49867659405836      35.878061126299443
   158   1      19.166322216444115      21.777342141280148       1.770707681314728
   159   1      17.747641846923301       22.81477386603494      36.088639107679498
   160   1      19.097903563169261      24.239198457296627      1.8234983623782341
   161   1      20.380512586323665    0.041404657983083806     0.11021054219683046
   162   1      21.675000419147228      1.4527040330648304      1.7908816875127171
   163   1      20.433598644337842      2.6291747567018846      36.091304585108894
   164   1      21.560645912374202      4.0587423670606837      1.7981592831138511
   165   1      20.338927913940037      5.2247248474426842      36.001973909238146
   166   1      21.676278306895263      6.5917126540097879      1.7612443531941284
   167   1      20.441527298529426      7.7516463465407339      36.049839990524575
   168   1      21.842260504652742      9.0386539090692501      1.7457519473232301
   169   1       20.30189900415175      10.323632478060594      36.082527427698807
   170   1      21.698885927381166      11.726157041890271      1.7419931147420133
   171   1      20.335721068502203      12.938679509347306      0.0524126495592101
   172   1      21.739451135577056      14.167299177755615      1.7037552669715867
   173   1        20.4931658002989      15.645125897978199     0.10352624165841463
   174   1       21.83645413856474       16.79198159218981      1.7999415261003942
   175   1      20.504410170493731      17.976301712241558    0.023693262312588104
   176   1      21.953322617627574      19.214323206495049      1.7349697183619801
   177   1      20.418592279832303       20.49586755296286     0.06744399381069581
   178   1      21.685523625620906      21.746994584789803      1.6546560524196146
   179   1      20.260418286091873       23.08452366482074      35.827747135308115
   180   1      21.571945088657639      24.234599706415061       1.784104559953867
   181   1      22.822069589867443    0.047184620153140719     0.06478190735888352
   182   1      24.040026811347477      1.3934111298095251      1.7952871395008745
   183   1      22.897909526091972       2.635526301460124      36.090672928250868
   184   1      24.141621719314564      4.1223681673031303      1.8062815439477375
   185   1      22.877899857866847       5.288996766279257      36.035219970262453
   186   1      24.135334735742532      6.4028829217462588      1.8878565826853111
   187   1      22.937997341276219      7.7698032427393029     0.11764974658328821
   188   1      24.379311444408227      8.8779222903547641      1.8666231951413585
   189   1      22.880073710142458      10.256692510827454      36.077590740679092
   190   1      24.155293268321465      11.417476456998978      1.7745617168015086
   191   1       23.02025366751408      12.881919342354378      36.040500074085159
   192   1      24.213190020924433      13.974575651793282      1.8332807351900109
   193   1      23.058418121727737      15.479792143871281    0.067325754945011168
   194   1      24.439656485970829      16.534467826156348      1.7739168979225399
   195   1       23.12495557744154      17.951841689983542      36.062774298189552
   196   1      24.409499972066612      19.211822747018431      1.8261303430330269
   197   1      23.086106603724861      20.432863843764459      35.882231174415217
   198   1      24.092771622879727      21.680676970105832      1.7798441568309504
   199   1      22.760269556206346      22.900603427977899      36.072742709840078
   200   1      24.167223119959221      24.361794828784621      1.9296517526286716
   201   1      25.414593860909978     0.28099990797167845      3.5283297057637117
   202   1      1.1142374049632748      1.2834185184848019      5.4460812945536583
   203   1    0.042028085136249962      2.6804304044597815      3.5086179479416177
   204   1      1.3061155692343231      3.8929163715698532      5.4992191595954774
   205   1   0.0040599002109504775      5.1900705558852831      3.6262968915316911
   206   1       1.185791036884801       6.426411444636269      5.5537841339029868
   207   1    0.012573132960388408      7.6503169502665118      3.5446911278369266
   208   1      1.3508200002259771      8.9309064474816502      5.4723544220871965
   209   1    0.026815917240141929      10.160890330465856      3.5405293211068058
   210   1      1.1523807824752705      11.409145064843385      5.4008126794406541
   211   1      25.424579844107857      12.839296516324355      3.5564375972842854
   212   1      1.2321521158666138      14.090602642733598      5.3330357129254873
   213   1     0.18197706050472287      15.366668692910457      3.4695174125200561
   214   1      1.3667783948562338      16.634305598644946      5.4364415531393071
   215   1    0.092158935082795476      17.856833202323113      3.4629243257973026
   216   1      1.3391197639281083      19.126271353942592      5.5529264049464953
   217   1      25.512996822691459      20.264746381765953      3.4710140168012917
   218   1       1.202007729315751      21.732860432604269      5.2773865336625381
   219   1   0.0013158542312359676      23.073846732481144      3.4622710011448365
   220   1      1.2325713483758016      24.265746104446283      5.3250563346021416
   221   1      2.3713833930947068       25.47346915580734      3.5813377264994748
   222   1       3.740222082958601      1.0746606308216236      5.4274428428075607
   223   1      2.5550613750588367       2.575340947842236      3.7504405808027097
   224   1      3.7178375332718936      3.6361236886303483      5.4815287904073848
   225   1      2.4661017460503758      5.1567080045429083      3.6520777627421346
   226   1       3.733195902955758       6.095356989526997      5.4138355678366485
   227   1      2.6210422813843461      7.7631455796835098      3.6923841710914775
   228   1       3.810917304082436      8.8718431871384382      5.6202023539057056
   229   1      2.5693917898091798       10.23896338411615      3.5478181813360705
   230   1      3.7644602107893559      11.421755117447701      5.2369866994314718
   231   1      2.6805572115852141      12.915948091334428      3.7664331289164217
   232   1      3.9619516083979431      14.130832475752952      5.4870579855686126
   233   1      2.5879091179774649      15.313291102530316      3.6991451980728502
   234   1       4.087275200292674      16.574479311656262      5.4353341591861657
   235   1      2.6585599307310415      17.838239453911541      3.8110971657757666
   236   1      3.9694117219721581      19.020849493001961      5.4184175166491855
   237   1      2.6590879918393902      20.382613976944768      3.5948212415711192
   238   1      3.9642763166987676      21.348647183201603      5.3223897062019487
   239   1      2.4265965232404674      22.832762848436762      3.6165377637385325
   240   1      3.8232585249264273      23.913514442214176      5.3808261049270687
   241   1      4.9585370064911647      25.355798778669918      3.6393359829762022
   242   1      6.1810202535445491       1.100872323106207      5.5901312533010969
   243   1      5.0629392399210733      2.4045393449963806      3.7031269932358453
   244   1      6.4741760072472507      3.7803340951612983      5.4425713162707501
   245   1      5.1957689275910566      4.9796040975514595       3.642519494542213
   246   1      6.3955673353563203       6.451164205268662      5.4260280775222984
   247   1      5.0343077577921598      7.6621809774275569       3.827010998786851
   248   1      6.3686365238960105      9.0588434611710369      5.6158060891308548
   249   1      5.2789096025097004      10.292393897972017      3.5341272425778012
   250   1      6.4406235566597703      11.643537001097483      5.4371381907629805
   251   1      5.1469740555757975      12.851990598463489      3.5541156208000313
   252   1      6.4308286694275685      14.097747563340334      5.3369650322207125
   253   1       5.017211291953533      15.551173763594297      3.5172027739916181
   254   1       6.419224596016373      16.624177447516381      5.5453794794469715
   255   1      5.1362807362983336      17.805064315957601      3.5799272922039465
   256   1      6.4048477582113854      19.231955860597274      5.2147775556477951
   257   1      5.1127439786994699       20.40804170363009       3.448069926098229
   258   1      6.3931533480384424      21.779266199745681      5.3394055199840631
   259   1      5.1828829895173225      22.905232551142337      3.4785768087519715
   260   1      6.3857440968868904      24.157980982465414      5.3073749415209317
   261   1      7.5730466618636978     0.13378005404302187      3.5592747635396687
   262   1      8.7955358436680537      1.2959277504883369      5.2987121760914739
   263   1      7.6794765803040699      2.6593431241167966      3.5990494064585863
   264   1      8.8721362179475936      3.9232813158538544      5.3358709433285503
   265   1      7.5661207030640911      5.3238062102699191      3.6561188118496957
   266   1      8.9940580340997993      6.5616526197733904      5.4522949963237286
   267   1      7.6784026873617499      7.8028707538115736      3.5659789935298041
   268   1      8.8209311474714074      9.1167383052702338      5.3276125566744792
   269   1      7.6864604164141062       10.29700711551857      3.7448175982628431
   270   1      8.8847420356993059      11.519603407948036      5.4595378290062007
   271   1      7.5683035945233641      12.697497058070047      3.4805535600561943
   272   1      8.9333122718662121       13.93234916778837      5.2744733412869609
   273   1      7.5033096675646798      15.397254993190863       3.588763249298891
   274   1      8.9850263910320951      16.620337233628735      5.4309758148112124
   275   1      7.6261555359915612      17.811736501882063      3.5323010894783478
   276   1      8.9784724323302552      19.007951807747457      5.2851990073298891
   277   1      7.7127229566207367      20.332867249285364       3.478032768913728
   278   1      8.8628504289195558      21.774080493384268      5.1489439511505637
   279   1      7.5506012911514109       22.99842728424591      3.4583946822083473
   280   1      8.9565317408466907      24.364155069447531      5.2589777030966243
   281   1      10.216451168750554     0.10407582573731788      3.5155309259318068
   282   1      11.476019506034421      1.2266404919175584      5.3693193240455797
   283   1      10.208693236850674      2.5984383839104077      3.5734617319668578
   284   1      11.388549346574287      3.8215005171578746      5.3828808823302721
   285   1      10.055891479133056      5.1112836569455373      3.5913177393528941
   286   1      11.540409777208419      6.3446456095165313       5.325513443793545
   287   1      10.363889761621003      7.7507903677717662      3.7329071209774116
   288   1      11.704174686988701      9.0687184059799009      5.4285746777289319
   289   1      10.196937389028101       10.15992218559694      3.7117122343370581
   290   1      11.510176857204767      11.689157712337028      5.4086525382677237
   291   1      10.222671624094431      12.683519374883232      3.5305572971982202
   292   1      11.361620379515742      14.079340800751899      5.4732174741080728
   293   1      10.204965791266678      15.404544800772745      3.5252039521832552
   294   1      11.621457301038472      16.589571900910169      5.4036288454777575
   295   1      10.160190365095051      17.826793070927526      3.4592971238909849
   296   1      11.551057110294586      19.128892351072661      5.3235330749267193
   297   1      10.171342174650727      20.358751695175719        3.49602298710828
   298   1      11.390490548990186      21.615976516573863      5.3390519317422083
   299   1       10.21101680009915      22.996945858208171      3.4163095147482991
   300   1      11.426682720896519      24.222943580446117      5.3345800349428485
   301   1      12.763591083996305     0.19502405926943869      3.5679651514932735
   302   1      14.162055456058798      1.2386416443712425      5.4209786362281687
   303   1      12.664357142902819      2.6496351319628455      3.5491244474375661
   304   1      13.962119383981745      3.8276007757064687      5.4303304920807545
   305   1      12.689991919550888      5.1365090984710342       3.576727978095712
   306   1      14.090515596444359      6.3684382335714851      5.3303895039566287
   307   1      12.759846098717526      7.5969918155136984      3.5665931858800937
   308   1      14.024251146450958      8.8144431655757423      5.3368599212709569
   309   1      12.741968855180628      10.390196802865578      3.6072007519373406
   310   1      14.028720460721864      11.395641277900884      5.3209786451290233
   311   1      12.815956557105638      12.828381069342139      3.6073834924894861
   312   1      14.113910979230647      14.133120856380632      5.3601519428155209
   313   1      12.764824726427708       15.30238542492976       3.643681223793044
   314   1      14.162900916637357      16.637576203518559      5.3354918830384985
   315   1      12.777882454784921      17.909482072882561      3.4234613104277396
   316   1      13.947426704494752      19.173595185517932      5.4204099405066284
   317   1      12.531195342363851      20.374747346840167      3.5318251316445077
   318   1      13.920880116963668      21.656219165361101      5.3752379258255587
   319   1      12.724605302991764      23.064212102031156      3.3839634572151809
   320   1      13.955276155406995       24.24867537300079      5.3228034826034474
   321   1      15.364160668297501     0.05804611812748918       3.760110380505107
   322   1      16.641416519210804      1.1634486793113676      5.4175666714252726
   323   1      15.386465653085406      2.5683943393115354      3.6371480883375007
   324   1      16.635760961412458      3.7768725678302322      5.6000558964607388
   325   1      15.338198377768983      5.0525216052747757      3.6034096686893693
   326   1      16.501775130655787      6.2367647402366684      5.4826375984140947
   327   1      15.347154742583513      7.6469865306183173      3.5285638188428599
   328   1       16.54730973484569       8.972203213676746      5.3582420994039506
   329   1      15.383351428974064      10.191829283339196      3.7078778985219549
   330   1      16.568042697647684      11.570107933433205      5.4058271928930832
   331   1        15.2645387687352      12.843050975470643      3.6475739603934718
   332   1      16.611047086661415      14.250995500786946      5.3249640802876517
   333   1      15.338726994645718      15.280216394017886      3.4627725141430235
   334   1      16.721787582870249      16.580080160702909      5.4431874957252822
   335   1      15.254492083255668      17.896314899943935      3.5795811647838027
   336   1      16.589778780824069      19.119280436413046       5.404158478112671
   337   1      15.163722331886799      20.303261064357788      3.5293534138781752
   338   1      16.667022148573579      21.608247049499969      5.6573637977636722
   339   1      15.358364311299116      22.973638462544432      3.7667547999492146
   340   1       16.76038653784612      24.102067152363528       5.426876995808029
   341   1      17.814627679433773        25.4707626194235      3.6364307639170481
   342   1        19.1478328440704      1.2904986778302214      5.4143917578517851
   343   1      17.817352541534007       2.559306298581828      3.5530906831685218
   344   1      19.231618817898081      3.8180218615910144      5.2761251585608475
   345   1       17.78101444772944      5.1670684625775802      3.7315391316124402
   346   1      19.247171373268451      6.4529147954602468      5.4941980329154214
   347   1      17.908453817991159      7.6167910898794213      3.6505032462259424
   348   1      19.062529755368029      8.9872923446762591      5.3913720304291246
   349   1      17.859931655076593      10.227016274893529      3.6822577397091285
   350   1      19.311714261627515      11.543713689968968      5.2731197007732442
   351   1      17.813037787881832      12.900244163389022      3.6526989850662779
   352   1      19.155454165506999      14.082366048940251      5.3838495703459799
   353   1      17.997229262352491      15.412200015514468      3.5301297199241612
   354   1      19.190686316949087       16.78415386364998      5.3792620953697368
   355   1      17.742140087721996      17.784001926307759       3.690543285978316
   356   1      19.152068575710036      19.284629980233532      5.3685815691331884
   357   1      17.779536004601731      20.473518188341131      3.7065391106453891
   358   1      19.187681100727431      21.681842139752341      5.4166950407257737
   359   1      17.813543885871141       22.94853559807045      3.3976445817981009