dump/Cu_400_0/steps_81 (written by ASE) 

2000 	 atoms 
1  atom types
0.0      25.526554800834361  xlo xhi
0.0              25.5265548  ylo yhi
0.0      36.100000000000001  zlo zhi


Atoms 

     1   1       25.41765478372842      25.504396230678751      36.002593337604949
     2   1      1.4009929102058472      1.2467048623349006      1.8474973215153225
     3   1     0.28873424704073525      2.3254269155592557    0.039786230691163368
     4   1      1.4680809094165375      3.8542729171185171      1.9299146121219215
     5   1      25.344788706765389      5.0680967052789248      36.070960548087932
     6   1      1.3335430065604563      6.3989131822569574      1.8316913189462642
     7   1  0.00033506842740145824      7.6634946015042038     0.13309258270008986
     8   1       1.278106258825999      8.9034061642395326      1.7568392924534351
     9   1      25.497309149421451      10.188625044147928     0.14490303099274782
    10   1      1.4494541016562987      11.560792677945868      1.8311977047382577
    11   1      25.481542875962507       12.69716172298641     0.23178456673659856
    12   1      1.3270207661538593      14.112494727114756      1.9119430418344323
    13   1      25.482205969894473      15.227975142036197    0.085510851515266467
    14   1      1.2738979497032847      16.579864921179869      1.8282339633920641
    15   1      25.433050989620305      17.749331630271804      36.063819046217091
    16   1      1.1252361376518065      19.052742283827449      1.8145274337110202
    17   1      25.335853213078305      20.324162557373821      35.942325562648655
    18   1      1.1629920500058266      21.708439836224247      1.7851656654711183
    19   1    0.040733691354161355      22.844804547350883      36.049795514766842
    20   1      1.3119583952033349      24.270466222025441      1.8234093144739971
    21   1      2.4748073033891553      25.459560995288495      36.091389739376268
    22   1      3.7403237443654871      1.2522905920405831      1.7714951504494363
    23   1       2.669709747869657      2.5238278584444163    0.023069474145313504
    24   1       3.794958566362209      3.7919390896281304      1.7206726580831508
    25   1      2.4944708055213494      5.1510656409726332      35.997291463063263
    26   1       3.894160139824697      6.2263940006578888      1.7204807744121007
    27   1      2.5816751590837965      7.5889199644130931    0.078082444173310409
    28   1      3.8790169212389474      8.9677793126372176      1.6830661029692686
    29   1      2.5057782759175109      10.301013642067057    0.057622549999610001
    30   1      3.8890496911728292      11.505485597268706      1.6774116309655358
    31   1      2.5996215055443579      12.777970243584891      36.042686206025394
    32   1      3.6588227413403005      14.034919381478149        1.77196559825277
    33   1      2.4852464830152892      15.408266593230586    0.062814015305639376
    34   1      3.6584592090506391      16.583667127360922      1.8147861645259025
    35   1      2.3944454374862421      17.927703735255587    0.046764017912266899
    36   1      3.8062527528460759      19.142175389956986      1.8751714183618564
    37   1      2.6541396848342305      20.349383114852735      36.035677110357682
    38   1      3.8199169362922327      21.580747048677935      1.7777503367548992
    39   1       2.603823838588283      23.014692256054303      36.000714657632045
    40   1      3.7437601715260778      24.132800456173516      2.0117124678115834
    41   1      5.1858299096709892      25.403723904874717     0.12326154504609114
    42   1      6.3759275268459277      1.3413961247051112      1.8852669226931671
    43   1      5.1116761125199677      2.4033550775127988       36.08615543305762
    44   1      6.2483036202106463      4.0025211609809563      1.9382459442231021
    45   1      5.1410875920920116      5.0937919483697094    0.023936382927763577
    46   1      6.4736195963469108       6.468750233922627      1.8213091164827113
    47   1      5.1669052839681751      7.6838325134646528     0.11119690549837757
    48   1       6.423268750906157      9.0127473468876538       1.839825203340105
    49   1      5.2172822761833277      10.180419012299843       36.05943718516528
    50   1      6.3212282538355744      11.644799246877305      1.6409626440756264
    51   1      5.1538064037486375      12.780937540307178      36.040391914414691
    52   1      6.2904286329890091      14.050721449738308       1.777771227828874
    53   1      4.9836892517061928      15.312669568049792      36.048622293309677
    54   1      6.3501478646708565      16.805337157819604      1.6392692825517543
    55   1      5.0334370222361198      17.855550307038321      36.022755905920441
    56   1      6.3399273331306647      19.134845227918984      1.6241335570380449
    57   1      5.1839026210246839      20.382648502620587      35.948538717821002
    58   1      6.3173663711152708      21.673168367040862      1.8379432899068335
    59   1      5.0917736320988913      22.913787743961393      36.018128207701778
    60   1      6.4240455771175622      24.306404017038055      1.8725464282035986
    61   1       7.768342525975334    0.026854581083967852     0.14071777455228587
    62   1      8.9353905360579908      1.3671168202994535      1.9617703073347907
    63   1       7.596693191132565      2.5409164742882213     0.10431283195456457
    64   1      8.9215498435960878      3.9017208985255456      1.7962816003867486
    65   1      7.7053333623800739      5.1950884494377796      36.080823478989224
    66   1      8.9969796390683161      6.2825466590774033      1.8811112668890002
    67   1      7.5634077649833467      7.7252277000468679      36.099602574431366
    68   1      8.9785232416283058      8.8309967165556849      1.8147395648190585
    69   1      7.6518006596042651      10.195514202138327       36.00743240584778
    70   1      8.8220537699638069      11.395567869572867      1.5329394414879276
    71   1      7.6390258745306605      12.764396327374021      36.054985797301462
    72   1      8.8601947621988835      14.121435664653241      1.6574518807255454
    73   1      7.6093392197245624      15.403137174172961      36.051078870093363
    74   1      9.0288688495402933        16.6200376517404      1.7373755409498015
    75   1       7.717103608547986      17.894479634523872        36.0571201614719
    76   1      8.9137072679315548      19.100886190915237      1.6848707800052791
    77   1      7.6440661050190775       20.34348384260095       36.02886587223017
    78   1       8.846291994089837      21.628921742017816      1.8844285610669076
    79   1      7.5932742507481965      23.047336366313804    0.068928514540925884
    80   1      8.7062629720124978      24.195653417084706      1.8934261713822149
    81   1      10.245517711197209  0.00037047491674565766     0.26956766065566179
    82   1      11.541843898510308      1.2307163476235037      1.7848143926405653
    83   1      10.257742514950008      2.4571953341738433     0.18178600720981439
    84   1      11.511156500016691      3.7884788453614409      1.8242277673249636
    85   1      10.313792789831206      5.0351611225409973    0.011778795342172544
    86   1      11.481467038215976      6.3934418881660235      1.8843098294553888
    87   1      10.038806148477446      7.5159502088393131      36.000490365655956
    88   1      11.537943279133252      8.9491767117530081      1.7590408067278773
    89   1      10.192791541572312      10.029045119975866      36.056734833908898
    90   1      11.541732183879665      11.409819214583381      1.6671797349835848
    91   1      10.225416827088702      12.862956284500017     0.13902344012400358
    92   1      11.616497655057916      14.029660451555394      1.9765084488207654
    93   1      10.274619861989981      15.332496876733293       35.99335992948572
    94   1      11.663373989136806      16.442799626667984      2.0436952914375404
    95   1      10.180280849163649      17.873294439722688      35.984389430513133
    96   1      11.608162691575764      19.116195119789186      1.7796889259403421
    97   1      10.233156276707581      20.328196941001291     0.11905801302204957
    98   1       11.40890179733915      21.777836016262146      1.8400118354319166
    99   1      10.214718900531613      22.951034379037132     0.03873633742969098
   100   1        11.6211389441149      24.176726173931321      1.8797042481812576
   101   1      12.871599421731537      25.505843463860352     0.13015903798684589
   102   1      14.106401043328281      1.4248434940273371        1.80927875340759
   103   1      12.700793168380443      2.6493149500927604    0.061405870372709614
   104   1       13.98909169117794      3.8298653308816997      1.7588586366079755
   105   1      12.801687723571431      5.2014580206749779      36.078552371785804
   106   1      13.918861744015047      6.4030813708214778      1.7397607216930158
   107   1        12.7573461089088      7.6809180775254848      36.076490375261308
   108   1      13.989184993872847      8.9560069507916875        1.81404686250521
   109   1      12.771003312741421      10.169065829499308      35.962253420599659
   110   1      14.052024995268864      11.423579984717087      1.7842098392166688
   111   1      12.921028908666461      12.735558853185553    0.033928390092751219
   112   1      14.256774841877121      13.982450739438599      1.8507532482834805
   113   1      12.766547730390002      15.411346816025688    0.088875921719784395
   114   1      14.158947762520663      16.696125920087951      1.7720975668136918
   115   1      12.970033864374056      18.038533253348977      36.006525064356076
   116   1      14.126036629676236      19.166463383982208      1.8872041520155114
   117   1      12.747187784942174      20.531193352069209    0.083973611991802893
   118   1      14.036437467115096      21.624279704541138      1.8914621845352704
   119   1      12.749369529607854      22.921783211784181       36.09681142791473
   120   1      13.991718448815131      24.304662127844587      1.9178373750509858
   121   1       15.29836273513919     0.10380734408657664      36.008206296166087
   122   1      16.590506077229392      1.1549294934181711      1.8145798215131079
   123   1      15.355858806556261      2.6077558300527062    0.042999002852809456
   124   1      16.465679225882994       3.839050088310509      1.9034866422734702
   125   1      15.168725414419203      4.9989268095574442      36.059019903522042
   126   1      16.554098306209088      6.3206162152920689      1.6361405283731634
   127   1      15.235705543665219      7.6392306246455632      36.050286688066493
   128   1      16.671858606401123      8.8546137423603426      1.8624428295794486
   129   1      15.366471335812527      10.071958429108609    0.083066781455806996
   130   1      16.601237006280822      11.511683956574423      1.6845794892431629
   131   1      15.410893337595477      12.699340894871812      36.093197429708482
   132   1      16.811725188807443      13.878967513926057      1.7351282087821684
   133   1      15.393579845457694      15.252233070497345    0.025566381421663203
   134   1       16.62692784917898      16.477512828450696      1.7264035133167004
   135   1      15.518035555107458       17.85882748520018      36.066756710029743
   136   1       16.52578827271974      19.170281800790658       1.841698131887848
   137   1      15.246122974046374      20.467656104258822      0.1716524672725542
   138   1      16.509183807541397       21.62757341092599      1.9395301345297751
   139   1      15.185096184431242      23.006720304481036       36.08081293417623
   140   1      16.525447503015755      24.245669052555549      1.6874380805891278
   141   1      17.859360064504891      25.335608441920733    0.025549356072599502
   142   1      19.086056845075145      1.2368138393909678      1.8882286213000268
   143   1      17.789459674401897      2.6020139450406869     0.15938041780334522
   144   1      19.140894919049902      3.8351545509685088      1.8367696611654527
   145   1      17.817975014253513      5.0846503805007188    0.026104564388242574
   146   1      19.256510074262746      6.4850017180959902      1.7742781591842003
   147   1      17.962563659144116      7.6939657530880252      36.060549303586171
   148   1      19.074674948427958      8.8877106780071493      1.6187399620322367
   149   1       17.88144472722988       10.28196172388072      35.976527792723992
   150   1       19.12654103001633      11.473102120708715      1.7288487834299093
   151   1      18.055205418115232      12.778512291631769       36.02461752784901
   152   1      19.287068760820969      13.969315520803088      1.6837497740705671
   153   1      18.000135157456896      15.305076905956648     0.16138141965814171
   154   1      19.196354077127058      16.552631943359575      1.6525115065480365
   155   1       17.87397616618788      17.814993286657923    0.081827170422400231
   156   1      19.140501356946345      19.195460289535951      1.5978887933841275
   157   1      17.673686791056152      20.499276137264296   0.0047375124016070958
   158   1      19.041811997682426      21.634949419851853       1.666230099883431
   159   1      17.778246888979755      22.921023969349498      35.984107348775531
   160   1      19.015157288908295      24.080189816875894      1.7364853283206458
   161   1      20.384320091443506      25.467568389935611      35.986139878695255
   162   1      21.696089660121991      1.1846357087083448       1.802138337595159
   163   1      20.431326042671614      2.6940241884432892    0.041405886176573925
   164   1      21.822024602490508      3.8128022992589425        1.74605237585662
   165   1      20.374699092119272      5.1719892381378099    0.060389852453704575
   166   1      21.797598724075375      6.4945026912353541      1.8419002739040122
   167   1      20.406399346560274      7.6999008725870857    0.014200762856319236
   168   1      21.485650292973087      8.8209394479559631      1.8561184787940437
   169   1       20.50010668987407      10.210028714921242      36.036617677856327
   170   1      21.673501355726415      11.479036815059917      1.8523806067937483
   171   1      20.576069938885205      12.705826958583401      36.004602026464269
   172   1      21.679814803735198      13.929011110293231      1.7867440260836593
   173   1      20.509187473344305      15.238757261474509    0.033793715287583841
   174   1      21.740672365080496      16.575718282394867       1.855198483725395
   175   1      20.379467784721207      17.766002388360548      36.067432557277534
   176   1        21.4993388584904      19.171726082888807      1.6322699360977257
   177   1      20.269445800497746      20.310166485972516      35.897680318646863
   178   1      21.695126688748442      21.673867384707531      1.6229355546807027
   179   1      20.299218767827615      22.920494999742253      35.923984500033598
   180   1      21.782385157201883       24.05613381976449      1.6578585601046243
   181   1      22.815293397089352      25.473228530344684       36.09802551913441
   182   1      24.345179721262216      1.3999224521833542      1.8019952698380606
   183   1       22.94516074542949      2.5123707549895711    0.013067181572807847
   184   1        24.4093897343649      3.7406167268440185      1.7204575628582806
   185   1      22.913687394279574       5.014115385408231     0.09604812432544349
   186   1      24.285660774751733       6.400193091178263      1.9189847262703885
   187   1      22.965853172540463      7.6780872809050118      36.006778344032163
   188   1      24.036170601812032       8.860222788519259      1.8000544502330273
   189   1       23.08031770311505      10.197132811564529       36.07475703049429
   190   1       24.28733343725278       11.46379077929527      1.8419055524430519
   191   1       22.98795243020319      12.696350239077029    0.044059751605197962
   192   1      24.234718582515004      14.047758524241386      1.7919854513077662
   193   1      22.950512383565812      15.412675581873115    0.012581622861637247
   194   1      24.274832818817387       16.44426311259997      1.8333810380900681
   195   1      23.081416571481135      17.831812650851589      36.027987668354896
   196   1      24.040345498644331       19.23431556917528      1.8126570950277017
   197   1      22.715459018780795      20.319939788728171      35.926518846945918
   198   1      24.169621318985506      21.761633776021373      1.6009344279496094
   199   1      22.974014135930751       22.91391442344904      35.972937478918702
   200   1      24.414865644363395      24.154508579085512      1.7884747710933326
   201   1      25.423542326791807      25.397785610613631      3.7391888514315048
   202   1      1.1258448788261712       1.196290229527845      5.5069903828578504
   203   1     0.26076654348712225       2.493777727628784      3.5426282355506387
   204   1      1.4883639533422941      3.7859762379506936      5.4891585484631928
   205   1      25.505682716779265      5.1974046823706272       3.505694496572461
   206   1      1.2277843726536017      6.3274962309518674      5.4852241483026365
   207   1      25.424016109871346       7.832891780811476      3.6026739154918008
   208   1      1.1765952510907263      8.9593574796355782       5.194033682358044
   209   1      25.445140944709593       10.28790505359761      3.5090194838925637
   210   1      1.2526446498215735      11.453750121197013      5.4377614132957079
   211   1    0.055674421019604306      12.769013563026542      3.6595243530957369
   212   1      1.3294032781956633      13.884365442493944      5.5057822555343474
   213   1    0.047749153033656906      15.266715973085754      3.7087056721786138
   214   1      1.3693734485197251       16.65882862191858      5.4767009883666216
   215   1      25.320670343004647      17.871453388681328      3.5870073599611838
   216   1      1.2060927010077918      19.138398428447452      5.4864794264513215
   217   1      25.424521864190247      20.419698511440473      3.5629171768507968
   218   1      1.2762931856607282       21.46261821714883      5.4329733691442659
   219   1      25.467756361312045      22.921192003055356      3.5255385819324476
   220   1      1.3345411542689123      24.219082685549036      5.6085184089930173
   221   1      2.4830282388036151      25.457177571985092      3.7769883641267246
   222   1      3.8419746016568697      1.0461541533569432       5.352964717191214
   223   1      2.6433893481014188      2.5850050161726013      3.7286377392523447
   224   1      4.0279338986711979      3.9149823674728053      5.3806299086649378
   225   1      2.5743845813571928        5.15661437237436      3.6076119585434401
   226   1      3.8969133939357543      6.4713671444848604      5.3569414215980542
   227   1      2.5998804595673422      7.5978547060002368      3.5119771241242006
   228   1      3.6811136176147432      9.0635355185433824       5.241253806100822
   229   1      2.5201720267145022      10.249625714297713      3.4652968165068971
   230   1       3.935788423195608      11.472361393911008      5.4489647634573934
   231   1        2.65542997246266       12.75868354522585      3.6774351007222776
   232   1      3.8940778287492126      14.047704561759371      5.5917763093003563
   233   1      2.4727092385864995      15.263542206364241      3.7082961110026407
   234   1      3.8410741671390047      16.655562361229183      5.4353263893179342
   235   1      2.5404978258556574      17.915025583183958      3.5617398410365002
   236   1       3.585214406640858      19.168964269996788       5.455032227524943
   237   1      2.4796850269490132      20.365022198024995      3.5228252819996206
   238   1       3.733945500360961      21.727878459209709      5.4226149553154253
   239   1      2.5425885766667027      22.832250856565871      3.7403836000583324
   240   1       3.885121542965762      24.123749580324489      5.3955950088365139
   241   1      5.2158030345582302      25.410107030839061      3.4663061808386142
   242   1      6.3784629353325677      1.3005494000957754      5.4968094807632104
   243   1      5.1091454554163578      2.5740451481585498       3.750663977211953
   244   1      6.4143685070508685      3.7940212242064915      5.3985059515443128
   245   1      5.0777573079523375      5.3212027194989995       3.718080132942311
   246   1       6.538312469537872      6.3693331915404157      5.3533897504025409
   247   1      5.1058174675558874      7.6904064429611037      3.4865425426426229
   248   1        6.40218717288381      8.9111605704211563      5.3617124603134654
   249   1      5.0986348135831507       10.31588078705901      3.4775869236486643
   250   1       6.467872353322238      11.655714612927627      5.3515955583520851
   251   1      5.1021490571906822      12.850364739865496       3.582137132673108
   252   1      6.3149954864674198      14.054728787596595      5.2473865506273709
   253   1      5.0385556814337544      15.376270592423896      3.5342354996733194
   254   1      6.4031642230713866       16.52919795902438      5.2799439921385769
   255   1      4.9741039790410539      18.032688395779822      3.6321189643074092
   256   1      6.1301922321439672      18.996554162189657       5.455702805147804
   257   1      5.0568171693824375      20.405392185998817      3.8101095889385097
   258   1        6.32786405651904      21.606713302706879      5.4715790902630479
   259   1      5.2718061972273089      22.889448930936609      3.7019782197382787
   260   1      6.3807698649300573      24.287089884725191      5.5064154490188377
   261   1      7.6402273898167561   0.0069293445784114546      3.7434856923131332
   262   1       9.013848826226214      1.3014594571552853      5.4804580911867626
   263   1      7.5702597842580515       2.534081924589604      3.5172432738233415
   264   1      8.9607247752042234      3.7335474877686385      5.4038981464832876
   265   1      7.6881885103164356      5.0601828897729488      3.5521358957015186
   266   1      8.9811624419421801      6.2782494938046733      5.5534329845605628
   267   1      7.6737721768104938      7.6984778347424188      3.6733987848098288
   268   1      8.9176778676765256      9.0340458477103525       5.448371089463599
   269   1      7.6155160902459009      10.397695223334182      3.4452868638912149
   270   1      8.9665659710721162       11.52458598252781      5.3827490440374177
   271   1      7.6926102961365954      12.809477039355743       3.531040276383179
   272   1      8.9953651259839269      14.009657262628091      5.2259961327113631
   273   1      7.7444231377912107      15.303595313469895      3.4650506143936699
   274   1      8.9037664779080696      16.447459296817698      5.4326015121357614
   275   1      7.4477824341506169      17.988080455214309      3.5995217330303495
   276   1      8.6859137728482381       19.28360700183444       5.487378488502153
   277   1      7.4360313394871342      20.386797044622856      3.4990528674285333
   278   1      8.8462612259609283      21.796933524520899      5.6219748836817196
   279   1         7.5845215152167      22.891161388753147      3.7574353619929788
   280   1      8.9443216006096105      24.114146099591764      5.4233816367090597
   281   1      10.163209641717362      25.497887590494678      3.6297989782722189
   282   1      11.348162956898982       1.273868535043958      5.3112936883067334
   283   1       10.15829414874848       2.645474816838091      3.6483123012064098
   284   1       11.45943027293235      3.8454989553960841      5.3745724591633692
   285   1      10.227996268579219      5.0356587757468718      3.6447217547071551
   286   1      11.474956143386892      6.3843540537824941      5.2975583544587499
   287   1      10.074406231357905      7.6863265835142709      3.7123025849251428
   288   1       11.51452546941626       9.035429874696792      5.4017737587313093
   289   1      10.342669054205327      10.057477627824458      3.5610246722303134
   290   1      11.364519388153163      11.680445655114331      5.2655024235407257
   291   1      10.068498043400899      12.685060963968562       3.355876902103911
   292   1      11.447120682675472      14.042652079481471       5.357324703548854
   293   1      10.146877575600993      15.385839984199068      3.5672804895444625
   294   1      11.515919639746237      16.757588853768635       5.334524688515204
   295   1      10.130311642724003      17.877283294438072      3.4924520983532501
   296   1      11.437512314848727      19.290954431022758      5.4258082123255278
   297   1      10.052745706985878      20.453233169123862      3.5848555437020093
   298   1      11.484944296552587      21.665210436287381      5.4927808993294045
   299   1       10.24385586316099      23.045739012702771      3.6607371314995958
   300   1      11.550029504986444       24.29618858316924      5.5084686737526658
   301   1      12.737201292990317    0.045918863740101248      3.7127474483594165
   302   1      13.983347680771686      1.3362358442994635      5.5516918568435063
   303   1      12.826562134694969      2.4778926850392389      3.5715698656193129
   304   1      13.951236332219814      3.8845187589235648      5.5222061345067699
   305   1      12.707088792411268      4.9752306450466186      3.6545886471413938
   306   1      13.979477220050139      6.3237998606394008      5.5158834347002053
   307   1      12.581239637437811      7.7005837732720854      3.5316457084199113
   308   1      14.023096279542095       8.835050256937329      5.3319171033881378
   309   1      12.905921068202677      10.301485664468446      3.5481431774736736
   310   1      13.936575819618577      11.450005803203171      5.3654749733525584
   311   1      12.848912702329232      12.866502281949696      3.4762436034929585
   312   1      14.185834359629046      14.083109375147242      5.2297531217578035
   313   1      12.930983131255976      15.267629781713987      3.7046737222925441
   314   1      14.036953235242333      16.554322660706887      5.3417645287215674
   315   1      12.754205566379401      18.042277855179087      3.7015575627520136
   316   1      13.974251282438269      19.180588070959789      5.5733642787142337
   317   1      12.636397041193485      20.563185328295507      3.6261416233020074
   318   1      14.005223320105731      21.568086097929807      5.5692304502183685
   319   1      12.788508167789834      22.981690519505687      3.6036463896991684
   320   1      13.948084411282215      24.231726954666872      5.5152407907534577
   321   1      15.306610304176051       25.45745648352608      3.7434935923673525
   322   1      16.547724802440857      1.0859431253815397      5.4893645233469011
   323   1      15.241855536404483      2.4962511638618281      3.7953857102081607
   324   1       16.62859182543874       3.784172614923154      5.4682024260603468
   325   1      15.230146071417293      5.1552505165855527      3.6049265869144498
   326   1      16.549004172164437      6.4719771629427116      5.4761909870332213
   327   1      15.138744526114072      7.5350909191105249      3.5463356982519953
   328   1      16.415042639653691      8.8388968621586059      5.3375392782667852
   329   1      15.319630008331536       10.06393475526342      3.5247368041378433
   330   1      16.636590422196374      11.477087394854824      5.3794135030045931
   331   1      15.465680973009833      12.820137559298267      3.5785630434587343
   332   1      16.626428630900712      13.999467121177979      5.3969552452215916
   333   1      15.595112191647484      15.487702424810987      3.5982448351748859
   334   1      16.635841818914628      16.583909293962872      5.4357526643873122
   335   1      15.321185721154439      17.803764721981462      3.6779474518551813
   336   1      16.627500183263216      19.299626756673028      5.2836157367629699
   337   1      15.299222311834551      20.448100965365057      3.7488819153678663
   338   1      16.494179201665155      21.646526677494144      5.3939122900267416
   339   1      15.267747109695264      22.898805314022365      3.5684738069790463
   340   1      16.391834830305861      24.083393319809719       5.454201114567419
   341   1      17.644308297631287      25.344683706615733      3.7306737325664168
   342   1      19.255371711780214      1.1589936809188535      5.2781965953099252
   343   1      17.787580378305325      2.4572241211716896      3.4821386154570302
   344   1      19.006926975750261      3.7612952700234108      5.3437134497605951
   345   1      17.695833554086867      5.0592148424558836      3.6511833913803264
   346   1      19.190740051662122      6.3950842830488837      5.3488249012970339
   347   1      17.806136015045592      7.6612656906544556      3.4679999034530615
   348   1      19.020044388209328      8.8079017760271974      5.3385092651012895
   349   1      17.949387545133373      10.289197762107991      3.5338233932649481
   350   1      19.047906133982806      11.427285081968943        5.34937817089574
   351   1      17.936587939241782      12.694786741227754      3.5823193572994914
   352   1      19.104638309563473      14.095388636950258      5.5727596399087425
   353   1      18.041051009966111      15.216911928960009      3.5935454565245539
   354   1      19.154603989400005      16.694323459318937       5.344762379639155
   355   1      17.881722295660534      18.035293907869171      3.4975667925227314
   356   1       19.29427791166648       19.12880359229732      5.2994450696132143
   357   1      17.948885323027177      20.476918509256546      3.6672783298270368
   358   1      19.046015416223216      21.561186660827193      5.5275842504633239
   359   1      17.929449415882825      22.925566112777876       3.533880668375025