dump/Cu_400_0/steps_61 (written by ASE) 

2000 	 atoms 
1  atom types
0.0      25.526554800834361  xlo xhi
0.0              25.5265548  ylo yhi
0.0      36.100000000000001  zlo zhi


Atoms 

     1   1    0.058398933038863558      25.509757336015092      36.013489429358678
     2   1      1.3426165161509993      1.1585350634503309      1.7065923166501529
     3   1     0.04558820179637784      2.4860430974313785    0.052432019335515265
     4   1      1.3182805071367489      3.6638789042954287      1.8028967684653698
     5   1      25.464121286633752      5.1551798635262935    0.076385129921822989
     6   1      1.1224457263156644      6.3966658867709318      1.7339810268279519
     7   1      25.511633041892601      7.7255185514263296      36.071312892411463
     8   1      1.2901861661169061      8.8199902726630057      1.7756626309224082
     9   1    0.076471659604644734      10.222228768331576      36.077199440872157
    10   1      1.2621861520878399      11.467813394684391      1.9928725190078234
    11   1      25.507190734513774      12.759625454161192    0.030542232355344371
    12   1      1.2145787966465666      14.243381425388179      1.7873243464732582
    13   1      25.412313459522881      15.235602842127218      36.071881813597606
    14   1      1.2983526622017612      16.654103323670196       1.648762502871763
    15   1      25.449102858590575      17.905431262934098    0.042670455171071354
    16   1       1.320593940440425      19.088040324297584      1.7667982076204358
    17   1     0.10737052295821778      20.568370153956543      36.015139681314373
    18   1      1.3266640616868899      21.531940794123553      1.8959929689723021
    19   1    0.088991350121585072       22.97813312410841      0.1191877149816831
    20   1      1.3732711417939998      24.117683462644994      1.7642592016637191
    21   1      2.5418981637347851      25.417494502645514      35.998690199765072
    22   1      3.8495797310390918      1.1605934013353745      1.6805848168546629
    23   1      2.6215954368011882      2.4437948413221622      36.034028399711218
    24   1      3.8241181543807334      3.5346851104954018      1.7095629080959058
    25   1      2.6254778292703413      5.0194929290408199      36.066283799110799
    26   1      3.7526018070371467      6.2815905528873186      1.7791818701732836
    27   1      2.5282346375092151      7.4901351798320119      35.997364951982796
    28   1      3.8555409534862286      8.9724374502086484      1.7847302026836249
    29   1      2.6120712905367989      10.332123084767639     0.10814511221736892
    30   1       3.874935837963891      11.663720815600854      2.0236508896489558
    31   1      2.5020555299384681      12.810523076878983    0.097743258428397595
    32   1       3.809054284985645      14.113275526830726      1.8498684134919345
    33   1      2.5363653423183106      15.280244494652941      36.038238661925476
    34   1      3.6585592544370718      16.506282832953687      1.7472156156154379
    35   1      2.6562369062798843      17.830306050429552      35.963472715237025
    36   1      3.7797765070905505      19.117024378765674      1.8718173175368855
    37   1      2.6109368595548323      20.311303751274576      35.874830269979462
    38   1      3.7785494667645749      21.545531781934137      1.8121175728703538
    39   1      2.6993134889611201      22.866124042689666      36.021566659953145
    40   1      3.8477976246846524      24.152025232356543      1.9782163750549104
    41   1      4.9924810144779164       25.31141317944704    0.082647271564041946
    42   1      6.5126867928333541      1.3754379246367316      1.8764796191090354
    43   1      5.2130338722174816      2.4916739331561391      36.087794188639258
    44   1      6.5139152534086202      3.8480624223888911      1.7741575595610806
    45   1      5.2202254709242952      4.9718677894332437    0.030374959759080861
    46   1      6.4730017035118887      6.2727667105755369      1.7557981343433211
    47   1      4.9830989198528215      7.5850692583836894     0.08878092926810266
    48   1      6.3714825927569816      8.7784485439019537      1.9436837425752973
    49   1      5.0559615807076757      10.215816172663134      36.071430653408655
    50   1       6.332910894478748      11.384514205056819      1.8400850076753836
    51   1      5.1672631886696871      12.910136180079116      36.047802931325776
    52   1      6.3827421007091134      13.930058312535934        1.87717469456237
    53   1      5.1919641764543574      15.435640799444251       35.87945577030964
    54   1      6.2785097980065112      16.702635840936392      1.7006693192491424
    55   1      5.1480598419820955      17.852119648052085      35.905236317674188
    56   1      6.3211399130052799      19.157485543277133      1.7365766762868575
    57   1      5.0943953865610521      20.443961905596947       36.03530539940774
    58   1      6.3778741440758031      21.600755003750884       1.881425849907862
    59   1      5.1350086463572033      22.847376152193501    0.057005143835249177
    60   1      6.3485919295492872      24.106071137842292      1.9835155540455727
    61   1       7.656084473356179      25.480348853777187     0.26527013487448142
    62   1      8.9787320146753498      1.3772086720033134      1.8094442232268413
    63   1      7.7443085454869793      2.6062632469100042      36.079787853933588
    64   1      8.9478121934786898      3.8279867717942344      1.8777992039135023
    65   1      7.6062462478153687      4.9935823950551832      36.019091206996748
    66   1      8.8900245591616205      6.2939107376518875      1.7269173580035728
    67   1      7.5591240725074034      7.5964856648380117      36.041485850657097
    68   1      8.6862828680890374      8.9201286186153652      1.7623150171893029
    69   1       7.662192432479344      10.214462076740226      36.034486636162029
    70   1      8.9506857299309797      11.516760642364284      1.8360689563016983
    71   1      7.6033829171438123      12.659218366231171    0.065014295146329559
    72   1      8.8881390240823137      14.106221395128335      1.8972590589484524
    73   1      7.5916277263967062      15.355162490912001     0.07830175331039306
    74   1       8.838686048075429      16.645960096198838      1.7278254909166093
    75   1      7.5496515311277079      17.787542152370623      36.028007222164966
    76   1      8.8792305300017631      19.050389294057254      1.8559379962451084
    77   1      7.6481523499144028      20.440001875481038    0.070466824945856293
    78   1      8.9516724765024982      21.686791170890082      1.8248606820264981
    79   1      7.6216004995923514      22.928837433005622    0.039900716292345359
    80   1      8.8980289547999067      24.172243875328068      1.7600270688060269
    81   1      10.157292920859614      25.491901929193943    0.016699341357025315
    82   1      11.707401775568494      1.2841292135967923      1.6805736458860798
    83   1      10.163312913596021      2.5782416166573539    0.054093853982590263
    84   1      11.522180523376875      3.9542719734505343      1.7814865668217645
    85   1      10.200535647413631      5.0772413579860896      36.007075593650647
    86   1      11.404922906392178      6.4500358726717497      1.8379193303529993
    87   1      10.122365148152156      7.7325325625126595      36.017554525320321
    88   1      11.448971084227777      8.7793023822820633      1.7359510920404533
    89   1      10.225326913782961      10.235269751747314      36.084680943344637
    90   1      11.555707831693969      11.506042475213572      1.7800358093019224
    91   1      10.202229441276129      12.774252179328574      0.1889167570580754
    92   1      11.463464634968833      13.956453049894311      1.8977649034740007
    93   1      10.180774643303707      15.190682676315253     0.26227662317535305
    94   1        11.4545707661871      16.571601221324705      1.9807684625266464
    95   1      10.231326594895242      17.703466694058712      36.098083449420123
    96   1      11.391691767247373      19.270349660121184      1.6826400036372204
    97   1      10.303691262068948      20.358804859787181      35.885615916053169
    98   1      11.409387381664777       21.68171768332375      1.7995014982994801
    99   1      10.059188065556821       22.90113398689239   0.0064677814470883339
   100   1      11.539346103320714      24.133664222203471      1.8368066562150946
   101   1      12.684462636183111       25.35219291785403      36.080028801861474
   102   1      14.212058466247038       1.241549459669713      1.7959074403366813
   103   1      12.816802694310718      2.5551461466035921      35.899169948324669
   104   1      13.980090061498638      3.7520852280085175      1.6839481197702739
   105   1      12.708704647831135      5.0104836014863663      35.969214121343263
   106   1      14.002127157280309       6.359421550352212      1.7410299691627418
   107   1      12.612415627120489      7.6214620815023419      35.965507944050565
   108   1      14.006019243173315      8.8700830565124047      1.7272240519138116
   109   1      12.706211615371538      10.088203469192251   0.0060444812349487488
   110   1      13.918469257555937      11.442936743345753      1.7362346452089241
   111   1      12.850184360125704      12.684018801539075    0.053544541831217797
   112   1      14.057742673399833      14.057324127539793      1.9620806347807747
   113   1      12.722856654478075      15.308082327035654    0.057953284720656618
   114   1      13.933879092916834       16.62658507609326       1.877655033587222
   115   1       12.80182667533419      17.891532422097804     0.14200044480072616
   116   1      14.009584147785004      19.150480310510687      1.8301701200435574
   117   1      12.787429935355862      20.401272587158605    0.024321345833732265
   118   1      13.970986556358483      21.712290330187589       1.854735404188216
   119   1      12.711586561521996      22.881139698318375       36.06767319613629
   120   1      13.894232819590773      24.279004774719077      1.8986549929146461
   121   1       15.16291367607846      25.450844051112828     0.10314550416843545
   122   1      16.611078320232945       1.230837404497114      1.7692292811894053
   123   1      15.379162178589338      2.5880131263279127    0.013021446980428661
   124   1      16.645424693835711      3.8206533125356867      1.9325473938796114
   125   1      15.356043674579992      5.1144567084435408    0.039197778751747563
   126   1      16.583341148797675      6.3225745505347488      1.8120690342126293
   127   1      15.322552164799559      7.5383226490571404      36.034037462804378
   128   1       16.61387209941066      8.8686373526094773      1.8122049265796134
   129   1      15.178431249927439      10.200513150419438      36.067658462470696
   130   1       16.57009253541343      11.588384718193199      1.8271229124400874
   131   1      15.284714345791606      12.805688053407668    0.043953408429683885
   132   1      16.408425074725898      14.231436981880497      1.7204279651974501
   133   1      15.221921481573887       15.47224357161832      35.995294264943077
   134   1      16.428251546785759      16.638786678574125      1.9608800844659171
   135   1      15.327740219039555      17.850732280918201      36.093015246205134
   136   1      16.474775367839179      19.301910077936498      1.8138829307857929
   137   1      15.321152101081328      20.399316003171144    0.023645450391563821
   138   1      16.631792204838792      21.857854083771741      1.8410032319871674
   139   1      15.316376468324805      22.923812782707014    0.085610039308130423
   140   1       16.61879968814716        24.2216151387819      1.9708398763948016
   141   1      17.997601587353191    0.011488249074445919    0.076353188079997247
   142   1      19.137129616752127      1.3357522924912348      1.9304424663622628
   143   1      17.880255899560805      2.6138038827838823     0.18987839319640915
   144   1      19.180814284690168      3.9890112205612565        1.80320350320725
   145   1      17.840148045514503      5.1066185636181993      36.084714731918332
   146   1      19.062257146816993      6.3593156588139079      1.8063930471360323
   147   1      17.886688872218954      7.7168126121686402    0.023109208735718298
   148   1      19.050361911720632      9.0003695059330973      1.7415769644499721
   149   1      17.714833489477687      10.253907711173493      36.054851629986096
   150   1      19.070727761077439      11.482901441109906      1.7571479904260161
   151   1      17.820952544276604      12.903506482908254    0.091074801518289006
   152   1      19.065977891057646      14.132245628897882      1.8079982995427375
   153   1      17.788621624882136      15.618325130028895     0.18003181130782187
   154   1      19.146856615094382      16.741859609430854      2.0277244567393851
   155   1      17.702813687646429      18.043155020079592      36.083855151471248
   156   1      19.060324808725614      19.159431224810145      1.8464421483727733
   157   1      17.900932640267669      20.462297201445306     0.13218815795165714
   158   1      19.160986147606113       21.70229133629692       1.817607072688646
   159   1      17.841626592732354      23.034327776148206      36.018941685913724
   160   1       19.26769541744288      24.322388973253023      1.9421410669894261
   161   1      20.331525973268629      25.414715075895803    0.065572719389649481
   162   1      21.868041604564787      1.1823931038512916      1.6869823116925073
   163   1      20.355833520637781       2.404427977237094     0.12141594231695757
   164   1      21.697103131933094      3.8398748673340486      1.7674263207526208
   165   1      20.450002783135943      5.0895351675862219      35.993669034475751
   166   1      21.593336920343095      6.3333963919571437      1.7030985376851611
   167   1       20.30464996460308      7.6571871189907137      36.044703111545253
   168   1      21.514632843414041      8.9106569521815935      1.8320748470688843
   169   1      20.426125220799747      10.297945238559947    0.033821889315890995
   170   1      21.854617349228509      11.413645634320325      1.8403995383465166
   171   1      20.503263038391626      12.805549464843063     0.16901361193467898
   172   1       21.74559940778494       13.98101533713572      1.8447445851833089
   173   1      20.436323396459724      15.398757877141366    0.021014478646407049
   174   1      21.771802097266615      16.432792033034062       1.924063375553851
   175   1      20.410067080444112       17.84228433093735      36.038086446883817
   176   1      21.705978595088119      19.225525441844702       1.817061014312914
   177   1      20.358593114733896      20.453396854283735     0.12650397857232734
   178   1      21.708072993618625      21.620900495679937      1.8806844430610918
   179   1      20.473056272823758      22.916773488918015    0.049549401210640442
   180   1      21.778433717188545      24.193428601979026      1.8178515810870763
   181   1      23.105732641477829      25.502985004512951      36.034168726113542
   182   1      24.276921322929393      1.3252829891127029      1.8704881676674188
   183   1      23.010965092316415      2.6209826725394447    0.065444259086973447
   184   1      24.323353982927529      3.7966993650680667      1.6700646770603722
   185   1      22.926989310380165      5.1163441150208353      35.961929273952236
   186   1      24.141162961103223      6.4812215327873259      1.5380907858645847
   187   1      22.850459972300818      7.7594422082041099    0.094338052614159576
   188   1      24.361891891648096      9.2288449381608455      1.8017275744159871
   189   1      23.035631031208986      10.309820617961563    0.020090899348610941
   190   1      24.179569341674032      11.705090519614426      1.7148613721573487
   191   1      23.045590413079726      12.944762162655794      36.009614561445439
   192   1      24.213252783407423       14.08893517196147      1.8315437697433243
   193   1      22.940841722744128      15.332127076132993      36.087859696569744
   194   1      24.208937019998555      16.797372343951015      1.8580003774238421
   195   1      22.934510671451221      17.940692287180202   0.0099347431195496785
   196   1      24.276239948342422      19.335105049297212      1.7828559324580289
   197   1      23.135866661170628      20.359323591865476    0.026221773795089127
   198   1      24.129602377751599      21.808041469988087      1.8596519474260174
   199   1      22.895596761631502      22.868987727275712   0.0028320747727775594
   200   1      24.282561457874678      24.284325122000482      1.7359172102135163
   201   1       25.49146713867712    0.014092509896995882      3.6017359276117071
   202   1       1.209509233084693      1.2443986382740155      5.3863301888515824
   203   1   0.0075169493507024803      2.5593266793614067      3.5553032900110231
   204   1      1.2773438533781276      3.8163410705731446      5.4707805771691591
   205   1    0.026826548444434762      4.9897037378077389      3.4816069568315817
   206   1      1.2140390909816403      6.4716087869360654      5.5356402207384079
   207   1      25.299830527767767      7.7025146640903506      3.6468257329966351
   208   1       1.334161843696801      8.8526084405412035       5.283251671349773
   209   1    0.066633168045305821      10.131098377710114      3.7992549218742835
   210   1      1.2765959862986842      11.421552842651019      5.4757602704015707
   211   1    0.052059873686632667      12.702458796207479      3.6052717983539768
   212   1      1.1602952049388646      14.041812385324331      5.4553868834716956
   213   1      25.429636799931181      15.412190050770809      3.5918385084275442
   214   1      1.2565080525369625      16.499381441122718      5.5811611906102199
   215   1     0.15390115526660825      17.734275352634011      3.6728331178815723
   216   1      1.3260449995239816       19.10203364170123      5.6292610659316438
   217   1      25.507865697178602      20.241397717157337      3.7490221958904795
   218   1      1.2655150292329096      21.716992454635061      5.4295958235215434
   219   1      25.521948565158961      22.972671451340325       3.646270233840196
   220   1      1.1860230047057441      24.344516449181111      5.3200907201346457
   221   1      2.4936350757709222      25.448674902632767      3.6763172050101551
   222   1      3.8588012175389417      1.2107897518374739      5.2290940593878501
   223   1      2.6606201702750534      2.4254247485449216       3.567576397552819
   224   1      3.7095923280137133      3.8592172002483203      5.3295937326197631
   225   1      2.4970470638411877      5.0369314042531146      3.4062203279856145
   226   1      3.7244015483955306      6.4017376919850575      5.2142690802004594
   227   1      2.3381160405592682      7.4918614225214446      3.4572958711815986
   228   1      3.6576863842324054      8.8652869726689243      5.4958751923224147
   229   1      2.6951994920984657      10.003563425915699      3.5446433819713095
   230   1      3.7449720806504603      11.555168705396342       5.435412499351016
   231   1      2.6255030011472673      12.924291802151201      3.6677841341529942
   232   1      3.8142128242585347      14.098799105179138      5.5709641419558027
   233   1      2.5610164520093717      15.252522070896136      3.5799254323923275
   234   1      3.7981051581132554      16.527284978310607       5.368082366871727
   235   1       2.549406685325422      17.785907756997695      3.5726199577816389
   236   1         3.8804257740349      18.954876155674775      5.3798740271312333
   237   1       2.605654772752751      20.242847941424014      3.8128125202943464
   238   1      3.7746419621074931      21.577974983410137      5.4942452210632728
   239   1       2.581816400231594      22.947103432266019      3.7286726126983858
   240   1      3.8711139684438036      24.327559907330492      5.4019424973471573
   241   1      5.1700259305839049      25.524200458800763      3.5795445695673958
   242   1      6.3971849336880755      1.1395277108141915      5.3981223872769286
   243   1        5.17730886153113      2.4145015934256451       3.613192666361901
   244   1      6.3482400534447017      3.7023273666780572       5.381841102748675
   245   1      5.0861250147714587      5.0331945750780829      3.5741023792632531
   246   1      6.2700420173639149      6.2846430899510883      5.3674760171594063
   247   1      5.0372400361779368      7.5879228749514276        3.53718221858436
   248   1      6.3315809322506347       8.936598959951656      5.3688144956939166
   249   1      5.1298846220313115      10.202770311228349      3.8779304847778864
   250   1       6.317753786201564      11.589143022249626      5.4470960369240853
   251   1      5.0709307614460917      12.802932224058495      3.7033145323244137
   252   1      6.2893135022783655      14.180776722792174      5.2732505162107568
   253   1      5.1419581123374893      15.447465454890793      3.5642841313682774
   254   1      6.2367038732812867      16.602065341421181        5.33356055966048
   255   1      5.0441209015823283      18.036301691979375      3.4340107987150548
   256   1      6.5381085393952869      19.011688048944439      5.4942199418459685
   257   1      5.1444691680577126      20.350492043584438      3.7916294498888807
   258   1      6.3802628947723763      21.725903482582162      5.4053328430425065
   259   1      4.9711995524902974       22.85809566380113      3.6287766803698736
   260   1      6.3994673397286546      24.141559581065028      5.3605595806567052
   261   1      7.7938353191818992      25.442180688377846      3.6166794789213896
   262   1       9.033163245469547      1.1872594989757905      5.3586965704831622
   263   1      7.6500015191733963      2.4816847339731822      3.6537058128334268
   264   1      8.9035722846937055      3.5889495470693937      5.3624521257107078
   265   1      7.6776627615629272      5.0448607203285771       3.620809455597036
   266   1      8.8064772997148228      6.1638132090285742      5.3957469737212591
   267   1       7.573765351520251       7.707546668567903      3.5932909446863408
   268   1      8.8671391409264082      8.8718982962399071      5.3536791686508538
   269   1      7.6020278953938742      10.226829343718565      3.6330643602346449
   270   1      8.8232732955471196      11.446060154690761       5.364029917651667
   271   1      7.6655313465590318      12.759465588387659      3.6138166047759679
   272   1       8.750792510499295      14.082673883880467        5.35580137886455
   273   1      7.6194867599414939      15.327567298330994      3.5926272358818339
   274   1      8.6984689613005148      16.644392230536965      5.4104848751915622
   275   1      7.5697888084081759       17.86450673131521      3.6191566696705495
   276   1      8.8730618366034815      18.971447819776778      5.3193005484986298
   277   1      7.7299176903010629       20.32771291924649      3.6194981471635712
   278   1      8.8327147129680217      21.639048033172294      5.4174339113075822
   279   1      7.6409622091049485      22.766624005524523       3.602845795168458
   280   1      8.8357941482732674      24.137817064223949      5.4779771862687054
   281   1       10.15612483085925      25.359039933171356      3.5645320107101499
   282   1      11.603032133568551      1.0974895782016074      5.2484240804713718
   283   1      10.259129514616909      2.5045679766519591      3.5108712310344572
   284   1      11.487618589408079      3.7186271430070432      5.3749572695119276
   285   1      10.186708338029398      5.1103679111665654      3.4674721658428886
   286   1      11.415193256212165      6.4125854560258944      5.2953342652658817
   287   1      10.080770059044847      7.5998855240080205      3.6271211248155386
   288   1      11.326713977990877       9.036932678014292      5.2203552396348574
   289   1      10.147407027984713      10.196779382941765       3.523767354931556
   290   1       11.44425138749842      11.473657785722674       5.342629277305516
   291   1      10.230883641580895      12.806462405571802      3.5291266094408913
   292   1      11.271558279516377      14.037033952631106      5.4117454953081063
   293   1      10.046288137363904      15.416249745175231      3.7939199650182238
   294   1      11.396478718162992       16.81383804946033      5.3244701064172766
   295   1      10.136527343896024      17.849751423068518      3.4883745520761065
   296   1      11.398783042965043      19.222541144697946      5.4644062942996658
   297   1      10.325112870339769      20.451300958687192       3.510609715669204
   298   1      11.323913766311271      21.781170972273024      5.5656769060658338
   299   1       10.07060307129581      22.914460009167385      3.7251905202706808
   300   1      11.189060794036191      24.321357433194013      5.4142739340947603
   301   1      12.664167830290301       25.33789746347118      3.6699989604653438
   302   1      14.204886666537583      1.1746365155640781      5.4745111555239747
   303   1      12.768024315229722      2.5726118324988727      3.5789742510662332
   304   1      14.083643853369789      3.7394460905358557      5.4998044582890575
   305   1      12.743764081145867      5.2446519318672618      3.6014177023194853
   306   1       14.01891633817208      6.3427094961730184      5.3509741528580941
   307   1      12.793531811791123      7.6369956981071825      3.6408833210559299
   308   1      13.982861250256693      9.0211955932734664      5.3424973612892899
   309   1      12.651040289087907      10.115384084160301      3.4982772871178427
   310   1       13.97065792850645      11.483602023924366      5.3695522060193808
   311   1      12.833721516348589      12.902553016851682      3.6372156066362593
   312   1      14.010585293772689      14.109961962136747      5.3449982899835096
   313   1      12.602102727363318       15.38298499338217      3.6186252475763974
   314   1      13.974668911875876       16.79233540684104      5.4751390206949644
   315   1      12.687037272016777      17.889106726703734      3.6504658650794695
   316   1      13.995960089641711      19.334806153678787      5.5072923014608506
   317   1      12.691087309116202      20.415446351648765       3.666961975259222
   318   1      14.046100903144971      21.758580135662587      5.5078166128043611
   319   1      12.621917894915228      22.975589214045687      3.7094522166503081
   320   1      13.896217116704854      24.249289526255371      5.3394614866758765
   321   1      15.362759090158997      25.380783949990956      3.5699594037331743
   322   1      16.724828804157575      1.3661043580738461      5.2642599256664928
   323   1      15.308413720805238      2.4445256659469803      3.5580353263639291
   324   1      16.598029099633234       3.763357395209928      5.4959218774806287
   325   1      15.248257493143624      4.9035161712549931      3.5785896503261143
   326   1      16.421448399748318      6.4474282706947434      5.3623014251703438
   327   1      15.263248112377314      7.8153285662600895       3.553714516727088
   328   1      16.558154327391108      8.8601706911769629       5.466124010326709
   329   1      15.365981929633863      10.251141495693824      3.6124218874440852
   330   1      16.563891273638905       11.58495337053705      5.4956568618764958
   331   1      15.456537898576094      12.737770565091433      3.5100308581144408
   332   1      16.586111044235551      14.079635374206717      5.4123554505621492
   333   1      15.197868045947173      15.411431312102987      3.6128569007387821
   334   1      16.503946070807732      16.699612634752167      5.4747993389568768
   335   1      15.209671057420403       17.98959271418045      3.5256801987688946
   336   1      16.568605609511803      19.264482684365753      5.4879660749659429
   337   1      15.287719635655261      20.440941829055358      3.5408061905475168
   338   1      16.355841427452951      21.671663954572029       5.627643443692814
   339   1      15.260333217025847       22.90414093853277      3.7015060198599348
   340   1      16.506835178853866      24.237212899693173      5.3936060177670972
   341   1       17.95229353742684    0.037815268060527325      3.6606670004478512
   342   1      19.364732107407168      1.3953846609778253      5.3787211271878999
   343   1      17.873799461920434      2.6581269869447164      3.5857413248239483
   344   1      19.158249501657501      3.7796514976024005       5.180792709170853
   345   1      17.803671499160764      5.2185834949882732      3.7299598049575229
   346   1      19.287943828410437      6.4857934411349323      5.4166645469358112
   347   1      17.840009221983873      7.7975507537700635      3.6200176619488516
   348   1      19.152268922648286       9.031529305110066      5.4071858440140961
   349   1      17.833731612968982      10.305916134567953      3.5442491596733259
   350   1      19.197891261541134      11.419856353353934      5.4952142561992172
   351   1      18.043026610728255      12.655043069829683      3.6367535231341623
   352   1      19.123432978515314      13.919626376042821      5.3735655636991533
   353   1      17.631681334730544      15.335693305537273      3.6619957777557901
   354   1      19.226767805877301      16.557632658558159      5.2381331941591007
   355   1      17.816673896767899      17.968403067767582      3.6560830055388269
   356   1       19.06977844806843      18.985674863485531      5.5383966902699999
   357   1      17.805805268479968      20.397678176434045      3.7098697266946319
   358   1      19.092988087409434      21.679919309763925      5.3827452394635076
   359   1      17.931318526411356      23.067346953681845      3.6339793346819871