dump/Cu_400_0/steps_51 (written by ASE) 

2000 	 atoms 
1  atom types
0.0      25.526554800834361  xlo xhi
0.0              25.5265548  ylo yhi
0.0      36.100000000000001  zlo zhi


Atoms 

     1   1    0.088967804996824856    0.066568766152207817    0.005933337618716907
     2   1      1.2866541959584672      1.3226514787779375      1.9815834209501639
     3   1      25.400393046651185      2.5913219292379632     0.22685775685930601
     4   1      1.3661592323003835      3.7854667604826933      1.8327326323019737
     5   1      25.510067427075267      5.0718240299205606     0.11631766681692848
     6   1      1.3151197284738336      6.5945520590621935      1.8298884613868269
     7   1      25.423464086272176      7.5613930648185788    0.056015753866358931
     8   1      1.1841605243423978      8.9884504614212695      1.6959747840463371
     9   1      25.480931783332959      10.321295560659072       36.01257358221455
    10   1       1.209935420186077      11.589172702142168      1.6541338582965293
    11   1      25.483565110863019      12.920469953456237       36.06823474842836
    12   1      1.2658081280601463      14.155428512611342      1.9014235265479433
    13   1      25.501679385398347      15.404746356712574    0.030973499190145037
    14   1      1.1074375093204023      16.826670790938845      1.7412979353524753
    15   1      25.413645842444353      17.940860894084057     0.08686677124624119
    16   1       1.201142440571479       19.34237843992582      1.7898129767260458
    17   1       25.31885648134098      20.381092021025896       36.05500929533752
    18   1      1.1002476393606291      21.645674856613386      1.8178911127217814
    19   1      25.437663189660466      23.016311109477662      36.054006405213364
    20   1      1.3116727301491276       24.19004462779926      1.6208072874140262
    21   1      2.5610616313744252   0.0035138486522950426    0.061810013802858117
    22   1      3.9739849299984269      1.2038201804140527      1.8404127946754572
    23   1      2.5273891782191358      2.4202650732190185    0.025146274293808793
    24   1      3.8641397132109594      3.9053658826215227      1.8308718127957717
    25   1      2.5226367737520903      5.0548399900043766   0.0042068504063422531
    26   1      3.6851136100235329      6.3590484859511731      1.6411593518803345
    27   1       2.528467173089755      7.4686535936582006      35.969718922685878
    28   1      3.7420352226849114      8.9186214424270513      1.6087154981133716
    29   1      2.4424418040914913       10.12817478381575      35.951750118465974
    30   1      3.8322138915836934      11.532398659785141      1.6343355004124207
    31   1      2.5532763481909426      12.729798651659587    0.033865476120524804
    32   1      3.9554680451070383      14.092778370506206      1.7637267940984216
    33   1      2.5353469134454709      15.361731938934813    0.038505816623717215
    34   1      3.7570729476417442      16.475436767703204      1.7671642622350416
    35   1      2.6360960449621733      18.040462160760999    0.092602843695442666
    36   1      3.8666819937153529      19.271747403573787       1.871451968420287
    37   1      2.5381843036946221      20.527315026422592     0.15206726221089178
    38   1      3.8153596611165019      21.737332469670033      1.9116715880957145
    39   1      2.6990853031134998       22.93479343874009    0.093870761487687568
    40   1      3.7948879298126075      24.322047676702322      1.7254848030677734
    41   1      5.0539793263580535   0.0037196162549990542      36.024401656734746
    42   1      6.3591830160820599      1.1916165225565074      1.8051150094133723
    43   1      5.2026253475380582       2.448510897549264      36.013938084358891
    44   1      6.3513436004357677      3.6704075490626811      1.7758329915422342
    45   1       5.032956402485592      4.8956188899182731      35.942087902338777
    46   1      6.4271674347633896        6.25486013973212      2.0236303093945009
    47   1       5.103518054108541      7.4995254598680514      36.086950999197974
    48   1      6.3755958635308971      8.7889245854332216      1.7600277630793348
    49   1      5.0562619769326904      10.256447527276913      36.054673364565637
    50   1      6.2829200163916035      11.441512291235782      1.8156041386259978
    51   1      5.1519118527077659      12.827708295009241      36.053481930264198
    52   1      6.3522782040827233      13.981038668406754       1.672885926901323
    53   1      5.1111260063682113      15.355368187766024      35.929820348495056
    54   1      6.3256944356314184      16.646066643904277      1.7067337362971549
    55   1      5.0845017993859845      17.882874001661925      36.077385508973101
    56   1      6.4156146061351569      19.168737533500046      1.7444934742967593
    57   1      5.1857676012430307      20.338463438322407      36.035243110368093
    58   1      6.3604607511367064      21.637411684899273       1.837279220610947
    59   1      5.2360421305793245      22.898646717789724      36.088734850556712
    60   1       6.390747750870279      24.295365349077969      1.8415672484413901
    61   1      7.6543642091396729    0.086861184486428863       36.04715039779505
    62   1      8.9118419739279311      1.2713947721406356      1.5545540171843077
    63   1      7.6659963076053588      2.5486728511797243      35.968356666901435
    64   1       8.871738674474912       3.733398621716987      1.7214285181196263
    65   1      7.3997350097259149      4.9281925358493295    0.053183240374050943
    66   1      8.7970687062203403      6.3060105579200156      1.7927458205748057
    67   1      7.5932723126107486      7.5208829147106631     0.15395006161974165
    68   1      8.9357703591407827      8.8061627512160463      1.7490777338870767
    69   1      7.6251501773340014      10.101115793063014      36.091309489134908
    70   1      8.8699678319273811      11.547755528133502      1.8156323427332175
    71   1      7.5973016004274907      12.556490501434249      35.948379340165275
    72   1      8.8339036361923569      13.988212515085479      1.6170261707387563
    73   1      7.7044693865185661      15.336294088448314       35.92935749488214
    74   1      9.0541501795468733      16.526934910103119      1.6821734902449301
    75   1      7.6123412419364618      17.882703329598616    0.015557444779267354
    76   1      8.7670676554584865      19.332655397809813      1.7493172426689623
    77   1      7.5983736730868605      20.871576708995633   0.0047873014046558755
    78   1      9.0823970330725317      21.731520301422272      1.9816384863991616
    79   1      7.6795919318208581      23.219173771635194      36.015011372206551
    80   1       8.843868165596886      24.264023065334626      1.8004614574759346
    81   1      10.253990945758657      25.450993364218359      36.090910032314305
    82   1      11.339064982825352      1.3346411413214814       1.827039828901968
    83   1      10.256818901483067      2.5892809085081936       35.93634673256274
    84   1       11.39247221916631        3.76354752970146      1.7244099947535247
    85   1      9.9585697371023425      5.1457266126412584      35.974713641311162
    86   1      11.374140352383099      6.3956326417761034      1.7003292036671833
    87   1      10.154083548101932      7.7767078530557878      35.945432244553736
    88   1      11.482849604719389      8.9189118757395942       1.922246441696051
    89   1      10.177147350411737       10.12310365467674      36.068848239177484
    90   1       11.38669900366919      11.458610606513535      1.9256210277082242
    91   1      10.134873803942897       12.69333296206314      35.995427075333879
    92   1      11.489937340679045      13.886661206132306      1.7565006215867363
    93   1      10.291222387739474      15.362001330602274      35.998770774135529
    94   1      11.591784813581633      16.496321099884902       1.850650887627205
    95   1      10.287772023569813      17.892466151777114     0.18515954961222875
    96   1      11.349252219584235      19.149123319484527       1.841450698878599
    97   1      10.133899317809098      20.299356921482957    0.016799414370314025
    98   1      11.658462256547226      21.601366592684684      1.8156721465227648
    99   1      10.166080439393145      23.015053731916726    0.077449951417872795
   100   1       11.66148392110183      24.255345033224717      1.7674100769750678
   101   1      12.721487978284225      25.430797681828079       36.06024435679732
   102   1      14.076009757211633      1.3329138743884179      1.8713388190713423
   103   1      12.785875524495356      2.3781874069323892    0.090213768334490518
   104   1      14.094644266680936      3.7936062169097813      1.7722597365179709
   105   1      12.600265202649318      4.9106682381332156     0.03393369745895141
   106   1      14.012971630987467      6.3430097060294361      1.6614122491727468
   107   1      12.603885862709138      7.6941284478826075      36.057326131141338
   108   1      14.029801735583685      8.8109185570023616      1.8149025354702761
   109   1      12.733506206984179       10.28302356085096      36.092564239950512
   110   1      14.044520537160381      11.516311413289788      1.8541803675796946
   111   1      12.725697113282072      12.506316775468102      36.087249151360275
   112   1       14.04231405508696      13.955265742623739        1.97314102893166
   113   1       12.80377699596483      15.220113073689971     0.16481101733925232
   114   1      14.002206460520187      16.646654416451586      2.0021507452565839
   115   1      12.739889731612649      17.717471413319014     0.17521042405757048
   116   1      13.952917239249418      19.358819835412763      1.7983048841029685
   117   1      12.737556240046864      20.242462561934168      36.082290999473081
   118   1      14.106203103260984      21.771367928394813      1.7475066912326944
   119   1      12.796135022173475      22.790690267751621      36.010499332174113
   120   1      14.108872838267157      24.226636070261218      1.7691923588725338
   121   1      15.294690827510465      25.458657508628246     0.20504172146484043
   122   1      16.541176719842788      1.1830818886351382      1.9722297796562867
   123   1      15.338076408388739      2.5170996623719617     0.10334482635543052
   124   1      16.616155403679883      3.7518730474520026       1.818095947537177
   125   1      15.204941903141549      5.0416303402917606     0.03236837063080885
   126   1      16.602274739072836       6.331336353457381      1.7006320123457515
   127   1      15.367046216024718      7.6777889187209505      36.045986625160559
   128   1      16.602434284929139      8.8442222053831827      1.9341887615616669
   129   1      15.309436313805652      10.165132446358047      36.026787602464822
   130   1      16.473116307664426      11.383513807712502      1.9666804971136564
   131   1      15.337634750098042      12.722718635755863    0.071354096182551674
   132   1      16.487735435050855      14.038175148139469      1.8717889511578625
   133   1      15.284566264992424      15.231578529245965    0.057714570979919798
   134   1      16.444530685523166      16.505466617911669      1.8945898726300796
   135   1      15.193240540619701      17.827333846162922    0.028365785925029748
   136   1      16.627832645328084      19.112651231905875      1.8193687622861379
   137   1      15.271235204061687       20.43862475299477    0.027821508664897025
   138   1      16.726765598149857      21.601218564917279      2.0630041852851622
   139   1      15.406323625738656      22.963086392938411      36.077143215369979
   140   1      16.603959436256613       24.17327266463095      1.8830418213853715
   141   1       17.86539999540857      25.390929346417526    0.007333035918156823
   142   1      19.127400529032986      1.2717085903160557      1.7317413023716759
   143   1       17.69168059941223      2.3588024558048142    0.082597773529005186
   144   1      19.072194707948277      3.8928232071945414       1.789848162657848
   145   1      17.849643964310481      4.9916155482591567    0.073046196780740036
   146   1      19.138391955533478      6.3708643366896576      1.6803059819875554
   147   1      17.890798240190502      7.8090631348155375    0.015354755293265045
   148   1      19.241786767386742      8.8298983990796867      1.8138861915096649
   149   1      17.803039118792228      10.237784923902984     0.11194974617690166
   150   1      19.107587215642358      11.419942612962046      1.8645061366912268
   151   1      17.907888836301126       12.79794308281002    0.048838771262478479
   152   1      19.239595983331373      14.153799944425487      1.8444647750929788
   153   1      17.874518489359144      15.266657022963303     0.19516875288945798
   154   1      19.103223808252832      16.625217490251416      1.9306407755519457
   155   1      17.876817708419605      17.830118992377695    0.085892278382368792
   156   1      19.167091175498626      19.133618925493071      1.9100357119880513
   157   1       17.95826217415696      20.387742657733828    0.058267251017184801
   158   1      19.137105782268542      21.652239354498715      1.8096270037405575
   159   1      17.714675365124357      22.871284223927038     0.14138031187164865
   160   1      18.952731023773556      24.136705532536684      1.7156906366305635
   161   1      20.254688544292627     0.10194683681862926      36.010076363829342
   162   1      21.700492953277664      1.3470504102779737      1.8416132799568219
   163   1      20.381921214348417      2.4315478135869544     0.12172050522519837
   164   1      21.608191681221889      3.8171364794671745       1.950500884829024
   165   1      20.399410478922356      5.1576485665285405    0.042385103284539288
   166   1      21.623992553589463      6.5106178054427604      1.7990815820448691
   167   1      20.391032842973353      7.6863858507796321  0.00083819085486993433
   168   1      21.736691729680707      9.0157577577313894       1.754473056597796
   169   1      20.497978783317961       10.24228028467126      36.038754809596441
   170   1       21.69644754264327      11.493488564094552      1.8766172216687553
   171   1      20.367452483859417      12.638821863579574     0.24027364055204981
   172   1       21.60378332744542      14.111016452818658      1.7922823996384969
   173   1      20.509835629519873      15.290591710523948    0.067433486580955729
   174   1      21.758142609681812      16.629836362200926      1.9036724610937419
   175   1      20.369243056173417      17.874400916509064      35.984195511773301
   176   1      21.690997837001287      19.104517898414965      1.7757455777859603
   177   1      20.440707311647923      20.360765671926885    0.080300883340885296
   178   1      21.832865986237408      21.816919965700865      1.9260893285897724
   179   1      20.511982559206032      23.033659240519309     0.24197918159708237
   180   1      21.770931886453326      24.320562150529746      1.9932540611343248
   181   1      22.928737324599346      25.451383929899983      0.2201926113381206
   182   1      24.169566481206729      1.2963383633346925      1.9225342026739447
   183   1      22.950587580149971      2.5953556832983269    0.057125388482893585
   184   1      24.144360210074158      3.8683375058480283      1.8879079521301381
   185   1      22.994488012025894       5.064546744571703    0.086600038903372839
   186   1      24.239913270779908      6.3871403198628975      1.7679698052986281
   187   1       22.86943859020246      7.9041198827701571      36.094824747534858
   188   1      24.264790798388297      9.0509847434137711      1.8453490236350951
   189   1      23.005311624269368        10.2971487467548    0.013841605731249738
   190   1      24.261005714006181      11.628328867190659       1.813130269571126
   191   1      22.833676777549215      12.826304636028741    0.030021992056379079
   192   1      24.282064487673907      14.128700730451113      1.6608718205234463
   193   1      22.962693934125895      15.493955460554044   0.0054025627362193594
   194   1      24.222937661557161      16.630615684068058      1.8612112257746176
   195   1       22.79342925934613      18.049782519047291      36.087322938809621
   196   1      24.112457347543724      19.257994621994815      1.9013372142937892
   197   1       22.85667168035047      20.493762914442556     0.10302877184619791
   198   1      24.260625130254038      21.804296877618626      1.6391471268733866
   199   1      22.976101361610048      23.035292322852772      36.011639600805196
   200   1      24.412817076930807       24.39618492200535      1.7792130416600929
   201   1     0.13705389806331156     0.18382022847184254      3.6753183744329747
   202   1       1.213895159434214      1.3483092542943822       5.522446889821258
   203   1    0.076947871047599786      2.7209016428951687      3.7154111045905456
   204   1      1.2949755955285718      3.8292147681631135      5.5354559594056925
   205   1      25.525100191882615      5.0716829203973584      3.4901941880412202
   206   1      1.2249071004631942      6.3350223084507133      5.4018888164761147
   207   1   0.0023731814969112845      7.7375109568150364      3.6195535838854016
   208   1      1.2088806138122499      9.2087485928998127      5.3883422051119556
   209   1    0.020356747828779369      10.263347803177423      3.5761435188044421
   210   1      1.1249986545949435      11.589078160139763      5.4199931399576977
   211   1     0.10809621173575827      12.808249431853527      3.5428240550814722
   212   1      1.1823846014054247      14.107297128055501      5.5171036132467473
   213   1    0.054568658559983177       15.37940147180915      3.8019793663083901
   214   1      1.0965050321472254      16.788533876198176      5.3605972200943848
   215   1      25.413137286662117      17.983009812804315      3.4605874541205379
   216   1      1.1392276693680705      19.243889417330188      5.3843366454217021
   217   1      25.456833452994385      20.503463991915964      3.6500908516608583
   218   1      1.2939819806365092      21.760310732649838      5.3334145428978283
   219   1   0.0059976253089960184      22.890163243488239        3.63005949554625
   220   1       1.321733160192311      24.359999895727462      5.4378985828569952
   221   1       2.640030841489525     0.12532243496896786      3.6764363596758782
   222   1      3.9360723702199767      1.2402029926380354      5.4501254879806433
   223   1      2.5709065576905612      2.6562695285442346      3.7114153905581619
   224   1      3.8487471886498903      3.9125396020315839      5.5563862538573341
   225   1      2.6103110195887078      5.1853787996685421      3.6351669680929635
   226   1       3.822442355785824      6.5108507031883409      5.3838855820544769
   227   1      2.5719253903900303       7.636261662922287      3.5906674481107976
   228   1      3.6748661618517415      8.9727669022410339      5.3285304629599297
   229   1      2.4496220551081054      10.235164212695759      3.5071980572534138
   230   1      3.7866066783089192      11.450305584350929       5.459307985769863
   231   1      2.4663462192551466      12.825724044496088      3.6894252737181379
   232   1      3.6929939045465798      14.155471252364702      5.3476554403665704
   233   1      2.5169045070910339      15.372640875103775      3.5407902359034451
   234   1      3.6156638592439312      16.698345456998666      5.2233731336218918
   235   1      2.3734755250095145      18.040486913703305      3.5862711423155136
   236   1      3.7454180053044359      19.120879713857409      5.2876552506681751
   237   1      2.4705978608221968      20.488789169734364      3.6026211974496167
   238   1       3.806785238960261      21.778547533238669       5.385393680661859
   239   1      2.4783564383577197       23.06495505159485      3.6291939460153553
   240   1       3.716355532512531      24.254967875157472       5.447625919818492
   241   1      4.9978678841545374    0.059457807022493314       3.587674163089035
   242   1      6.4544500826546081      1.3018538259080092      5.4141217094084979
   243   1      5.0000883291260543      2.6190585074619244      3.5820148205917937
   244   1      6.3972981359154524      3.8284104110816153      5.3395538832013711
   245   1      4.9184750758158202      5.1067937001608357      3.6515393240248062
   246   1      6.4289864524159315      6.4045946807096756       5.309534692957202
   247   1      5.1229239089046876      7.5839827534252553      3.5579449558699836
   248   1      6.4013853685352142       8.989692385019401      5.4869523637985891
   249   1      4.9817216647232776      9.9967140190080581      3.4837580605829555
   250   1       6.409672906345059      11.447562701282804      5.1470570731168692
   251   1      5.0201220769782271      12.784864745109498      3.5498114171886743
   252   1      6.3593994129243745      13.958893162348945      5.2962052904226455
   253   1      5.0223578602520567      15.250552393561305      3.5720323131423011
   254   1       6.211943883540938      16.461847402378819      5.3725330242251479
   255   1      4.9000282737428442      18.012891593696924      3.5241543603224033
   256   1      6.1871097970957472      19.166801167879889      5.5152099352614252
   257   1      5.1831445544503243      20.622639911762626      3.6926425637084188
   258   1      6.2988813352702104       21.74736545510568      5.3935540180235986
   259   1      4.9620086350311983      22.931376300643297      3.5471780632093566
   260   1      6.2863792128270548      24.165796190054898      5.2108893682189761
   261   1      7.6252156226277688      25.414157211118862       3.580657241316715
   262   1       8.955792731826298      1.2575120543919152      5.4122755740458093
   263   1      7.6747291007210228      2.4614358317355691      3.5712804217942673
   264   1      8.8056848317122984      3.9032364841185614       5.384065201224983
   265   1      7.5561929291764995      5.0929928232566279      3.5550894423201731
   266   1      8.9399674786876933      6.4054264106224066      5.5007234030788057
   267   1      7.6361457139929669      7.7333392590770194       3.617953692021648
   268   1      8.8884795266657353      8.9408248146891669      5.4031482178693668
   269   1      7.7742483465725947      10.057601938634825      3.4856938230853891
   270   1      9.0296810345780596      11.363659787167803      5.3573478999667676
   271   1      7.5868500152794009      12.858068203685068      3.4837093259013501
   272   1      8.8502767332578163      13.887921468442022      5.3743358812592579
   273   1      7.6323924563580059      15.278990649577503      3.5525681004122807
   274   1      8.7939254572314791       16.45565501244819      5.3190192567356869
   275   1      7.3175968393382949      17.822626624944018      3.5927800774956502
   276   1      8.8336807996772073      19.035659081886376      5.3666148377384877
   277   1      7.5552334119248634      20.247865368483392      3.6654129702849172
   278   1      8.9598495505857567      21.568532042662955      5.3090787012985174
   279   1      7.6627666449336527      22.921960418680889       3.731193006626031
   280   1      8.8730677522155119      24.101789864829385      5.4836138769080405
   281   1      10.296614806283667    0.048967707679185797      3.5897232963522261
   282   1      11.493899881454372       1.211264876863626      5.5172072380422046
   283   1      10.194449851719449      2.6299978582282693      3.5588764033085809
   284   1      11.344292105621808      3.7633288501429845      5.4459685223833514
   285   1      10.156562986506041      5.1850310097312864      3.4077349348173143
   286   1      11.443302990675834      6.2957307528870317      5.4278475282942491
   287   1      10.225306590402697      7.5780154720464719      3.5773734048485846
   288   1      11.440874409998903      8.8126546148240177       5.427019367719919
   289   1      10.141653835164963      10.166562103528841      3.5621816356420375
   290   1      11.611617474317462      11.445482699237502      5.3614156896490179
   291   1      10.188672575441965      12.774535788919039      3.5580688938048857
   292   1      11.427182322632044      13.948034228291993      5.3688753941369454
   293   1      10.232358821337375       15.34293062301855      3.5011834657636185
   294   1      11.326855272097905      16.463186882074638      5.2677073206563785
   295   1       10.04671936531161      17.846332670733123       3.423739463731919
   296   1      11.358116062794819      18.955899624511712      5.4026258588724838
   297   1      10.167585049754608      20.299603923069725      3.6968176951991647
   298   1      11.504319115083561      21.614023852156723      5.3447912652231038
   299   1      10.172722084145338       23.10403918045758      3.6026001545446551
   300   1      11.535939549563148      24.170681765849242      5.5309152589789505
   301   1      12.628532762461116       25.42729532018679      3.7569474582307478
   302   1      13.977995166511507      1.3726767056487368      5.4983209568230915
   303   1      12.769432986103023      2.5828680819104557      3.6866325565664253
   304   1      14.028487425521471      3.7850708882242516      5.5904557358071232
   305   1      12.709526821902562      5.0585436202029408      3.4653190112424896
   306   1      13.965582846954616       6.233329129476191      5.4718220678587004
   307   1      12.722979587704822      7.4725076150342691      3.6461599592332274
   308   1      13.974474581264726      8.7250248506136661      5.3976148081269617
   309   1      12.901297435307811      10.159724603736334      3.5882933597714799
   310   1      14.106273446481778       11.33494504052452      5.4773252441913813
   311   1      12.730905448677758      12.565894012675853      3.6747133579850964
   312   1      13.971152976948842      13.938459154974062      5.2948528315147794
   313   1      12.792521353137971      15.185145961650083      3.6452165420789013
   314   1      13.814456492284792       16.38600869435529      5.5163809410142424
   315   1      12.685784769485737      17.840531785593694      3.5468762600668597
   316   1      14.002244655799705      18.971303203285675      5.4516942212526471
   317   1       12.55515163806473      20.331089223035971      3.6374984905581873
   318   1      14.078024112327057      21.677693793207791      5.4973624957684724
   319   1      12.716007099804463      22.927667718223596      3.6240267353229694
   320   1      14.004211982716877      24.357049610077173      5.4301787516858466
   321   1       15.20055270564332    0.039360573379419721      3.6853421970172184
   322   1      16.610910217145264      1.3387033952264009      5.4219634585570162
   323   1      15.375122252516356      2.5650308628719776      3.7569512496551245
   324   1      16.672399345889303       3.710821429439783      5.5822340347539301
   325   1      15.180522996069147      4.9535111506187244      3.7886735377233105
   326   1      16.467862781051789      6.3217861300212741      5.3459914708514491
   327   1      15.239832661993066      7.6977027000014564      3.5318155821914838
   328   1      16.511714984930247      8.7743779401159383      5.3541548083927122
   329   1      15.342608137426792      10.133117267835802      3.6049789640746219
   330   1      16.459596713604416      11.432228735763774      5.4011793158599675
   331   1      15.350935563710381      12.706843667838967      3.7638297801017204
   332   1      16.436337593072214      13.984914759885315      5.4977046488898873
   333   1      15.283157112364197      15.373005591927956      3.7081945732420061
   334   1      16.451472065350419      16.435349692219528      5.5037368985719501
   335   1      15.242166433962016      17.921938027185274      3.7572693765516805
   336   1      16.640247644105944      19.160572786958454      5.3914368653352485
   337   1      15.271710857823813      20.402423653622673      3.7270678133139552
   338   1      16.490369549893849      21.585722854099615      5.4079405081788705
   339   1      15.287336543304272      23.128964905449102      3.6867356008459069
   340   1      16.526971350436444      24.325186172825109      5.4352558189803055
   341   1      17.694448816702945    0.012500473536464702      3.7500812098748106
   342   1      19.285893425572354      1.2588027297377649      5.5895919785549868
   343   1      17.897027194046032      2.5652390509155505      3.6652734198807604
   344   1      19.224394766507483      3.8751566408541058      5.5110560811220877
   345   1      17.713453364199495      4.9738038677230785      3.6523124797593662
   346   1      19.061865779616987      6.2876147027978391      5.5257163303846646
   347   1      17.959747164338555      7.4927985938671053      3.6004549629306881
   348   1      19.065970349294126      8.8360723436373494      5.5025110838473505
   349   1      17.935166831922469      10.228165280057866      3.5901600507106779
   350   1      19.144031716090335      11.449775586744822      5.4839335435460557
   351   1      17.819476438974654      12.777293512712648       3.501494374222204
   352   1      18.922649974012263      13.964973538783036      5.4670132960378446
   353   1      17.751424051281131      15.332021990437106      3.6968333258906267
   354   1      19.207395465682779      16.728619126055591      5.3493269414990587
   355   1      17.786371924481077      17.741784621474778      3.7615230558703243
   356   1      19.080914782064337      19.339692128671004       5.619621126223854
   357   1      18.038691717179766      20.254524524583065      3.7304080782707616
   358   1      19.150654329653531      21.776732867446292      5.4158078170432091
   359   1      17.788076916738667      23.013050025887967      3.7492204994042289