dump/Cu_400_0/steps_1 (written by ASE) 

2000 	 atoms 
1  atom types
0.0      25.526554800834361  xlo xhi
0.0              25.5265548  ylo yhi
0.0      36.100000000000001  zlo zhi


Atoms 

     1   1    0.055005796736477534      25.383556831536858      0.1440021581865493
     2   1      1.1952400927968498      1.2673558816090293      2.0347256130828235
     3   1      25.295859022803153      2.3808960928842131     0.24311317100409721
     4   1      1.1020571358075915      3.8519935991026166      1.9314689030062036
     5   1      25.484152584843343      4.8070027585279762    0.013029797315437014
     6   1      1.1961723551123757      6.2343458617739147      1.7256728771702439
     7   1      25.478475699173813      7.5127460448281118    0.030045561126109996
     8   1      1.2579556437250501      8.8507069735342583      1.7888192519793504
     9   1    0.042712460422731101      10.204055711298702      36.021595601369214
    10   1      1.2977778126466657      11.410970826052205      1.8065610685161928
    11   1    0.091807389545900314      12.763608312590941    0.084246278630087212
    12   1      1.1981626214390357       14.06719369718809      1.9755004396201221
    13   1    0.037779261240390306       15.33856790776699      35.993129216749701
    14   1      1.3025918428064045      16.564582540890036      1.9395294197400967
    15   1      25.447688260383934      17.805810146358137    0.066256328543738641
    16   1      1.3718306195411198      19.101465303168361      1.8689265408654587
    17   1      25.510659755301198      20.435730054947751     0.02740365759491397
    18   1      1.3157821015566937      21.661641249035018      1.8870223697202633
    19   1      25.423049031566389      22.930699517749193     0.16726723123476847
    20   1      1.3014453487046902      24.226943708185289      1.8826904906378339
    21   1      2.3934921093255515      25.489426843231875     0.10177683035943787
    22   1      3.7612377452008374      1.2773517890566941      1.8636326297349797
    23   1      2.3047751445452067      2.5724321696433115    0.017427237605659233
    24   1      3.5774391008625899      3.6821772923426548      1.7956009853750534
    25   1       2.423843693479244      4.9387516153748114     0.16373801836446092
    26   1      3.8517918483707287      6.3364035544360462      1.7305388201280487
    27   1      2.4793471233888935       7.671319436687817      36.061278096764212
    28   1      3.7209814716474576      8.8234573517462493      1.6584091430848638
    29   1      2.5239766924153346      10.193006186341622      36.017722097837684
    30   1      3.7652256792695065      11.510830169180137      1.8044739370353555
    31   1      2.5205856071423955      12.709849620622711      36.072553265320828
    32   1      3.6621408062812506      13.943686536541763      1.8527785903551142
    33   1      2.3987908375879758      15.355217895396933     0.18096348152079139
    34   1      3.8028527933671632      16.509394732620418      1.7468196117380912
    35   1       2.596347765308058       17.80506905288561    0.060371094433776147
    36   1      4.0000317498615514      19.215429044285621      2.0034171488430408
    37   1       2.654938072526162      20.496843967178549    0.065729828703945239
    38   1      3.6724884924967314      21.772861052195029      1.9544879460012681
    39   1      2.4057083016079686      22.870912673539962   0.0055391496227571247
    40   1       3.759624967224767       24.25940600075694       1.843353546704567
    41   1      4.9893852102132428    0.032524514565448949      0.1631946948097833
    42   1      6.4954571989191949      1.4229911778383233      1.7986149998022833
    43   1      5.0371932015685541       2.502962656802826   0.0019225183749654222
    44   1      6.2266328359233585      3.7758944518013027      1.7944713181626857
    45   1      5.0317809554884105      5.0297298756998439    0.090456990878965318
    46   1      6.4150048509410178       6.377847294954698      1.8801108742317307
    47   1      5.1192491913589873      7.6105215652300835    0.061847234150889274
    48   1       6.413018941262826       9.032248083380173       1.758319443086021
    49   1      4.9961307429283321      10.234230856545889    0.046630262518738259
    50   1      6.3293123957207369       11.69248344388104      1.6980407705985165
    51   1      5.0120315995103981      12.890889314944911    0.020694923036467104
    52   1      6.4000587732171006      14.194407054361962      1.8511653732218418
    53   1      5.0827262880443929      15.450538200814789      36.074504756450722
    54   1      6.5731091527524201      16.550164484029516      1.7445469791308588
    55   1      5.1612008507113512      17.867089827858525      36.091623920667523
    56   1       6.473711925694043      19.067416860026903      1.9493693397018765
    57   1      5.1292837067788257      20.315027502410459     0.15856189908165549
    58   1      6.3123521315301296      21.530312632065666      1.9261254939350791
    59   1      4.9315904921693141      22.989485338854482    0.045526594111061074
    60   1      6.3091231965606651      24.236191506219228      1.7791716729709706
    61   1      7.6313949173626199    0.043354413416551205    0.043344532355581618
    62   1      9.0254212107455523      1.3704603530694921      1.8758167742041778
    63   1      7.7180487537206002      2.6144644662669649      35.996445935281109
    64   1      8.8783525068974356      3.7592733964914307      1.7326233338366135
    65   1      7.5370913005928264      5.1086663214937227    0.087942540398864816
    66   1      8.8460351488903086      6.4280280393838867      1.7366666536864943
    67   1      7.6217497131915248      7.5675523269944316      36.028719660217256
    68   1      8.8977847833050436       8.898972446457158      1.4550465098366654
    69   1      7.6254027094562247      10.144660090722974      35.862297158296577
    70   1      8.9498339589970843      11.411796231047239      1.7348740010327557
    71   1      7.5447598377744951      12.597313958152951    0.010793490913511051
    72   1      8.9860811172749724      13.869112855966657      1.8177929182676167
    73   1      7.6887549551564973      15.235857550289749      36.012338597306638
    74   1      8.9542484639175068      16.418236405633518      1.5653149804333895
    75   1      7.6471281733382561      17.660630586214435      36.043069183587797
    76   1      9.0138594407786279      18.820046104652651       1.827487489186558
    77   1      7.5939025444531207       20.52178729867255    0.059281176077650016
    78   1      8.8135276029883798      21.551196745811303      1.8953764719141986
    79   1      7.4358980332412532      22.966175133772925      36.098372897911524
    80   1      8.8057626064338166      24.301081146485149      1.9107332949612557
    81   1      10.158946951221557    0.048958919042579374      36.090149390787772
    82   1      11.433064907182676      1.3005496226004736      1.8603211484820907
    83   1      10.112167448033873      2.4735393419100098    0.029838283204617268
    84   1      11.492688585259735      3.7890035349455142      1.7459369582975792
    85   1      10.251108611833059      5.0817449673719173    0.016295360235619699
    86   1      11.576872556847302      6.3724191903307155      1.6677974557021908
    87   1       10.34315680448381      7.7169899629887935       35.91740097254803
    88   1      11.377475001544695      8.8988719249631352      1.7745243733060094
    89   1      10.288055349976961      10.374105859458412      35.952427804249744
    90   1      11.474758186409447      11.495048469455893      1.6588152223385679
    91   1      10.184996331299059      12.765658657719108      36.000847755050934
    92   1      11.569439717748569      14.091792101110249      1.6199856725057327
    93   1      10.283299622490262      15.247425695109298      35.975059855393368
    94   1       11.46151980475884      16.596755367124061      1.7531520804846543
    95   1       10.26311219958642      17.910764519928005       36.05204958339575
    96   1      11.568377182166014      19.133972282412387      1.7695297426786729
    97   1      10.217891773731683      20.525226653334553    0.089166054047780149
    98   1      11.426305469964165      21.704924368814879      1.7155866789806971
    99   1      10.024969979060785      23.071583052144184      0.1315491005692935
   100   1      11.428096911741841      24.377806951066724      1.6675485787574629
   101   1      12.715694644316489     0.16924137470588019      36.072592520575526
   102   1      14.140575484714892      1.3580825854957634      1.7130207697711854
   103   1      12.821425425903698      2.6397637975242656      36.079185125097915
   104   1      14.073938122468252      3.8710254208709074      1.7920161837220911
   105   1      12.693608727254377      5.0782651366063565      36.017895648147707
   106   1      13.957949770536132      6.4798175490664196      1.8953737232705516
   107   1      12.758250856770983      7.6657763562181724      36.054978306433689
   108   1      13.886552249754898      9.0472883603642966      1.6731555750106841
   109   1      12.689280416573741      10.169658807545604      36.000484506237704
   110   1      13.975986441152028      11.493791863121894      1.6876347232084989
   111   1       12.63154490961761      12.705008815227325      36.003141885323508
   112   1      14.061337447078911      13.972738427634207      1.6619891279587014
   113   1      12.857891428987649       15.43947199815095    0.018904289831323258
   114   1      14.230014881053842      16.554643143741306      1.7055188672099131
   115   1      12.824645155754101       17.84452564119443    0.027832935774142701
   116   1      14.082600841491914      19.071636597661307      1.7853788832162425
   117   1      12.781203734644791      20.525135921254922    0.019322880931167668
   118   1      14.174682036950365      21.768111714643361      1.7984481117186646
   119   1      12.763038806897296      23.068751912044849     0.19974742521020533
   120   1      14.184620073370855       24.26380730510844       1.736694931092847
   121   1      15.421492018595542    0.018955382086567898     0.04495590888029697
   122   1       16.65802898853358      1.1810476774568339      1.8734116583332807
   123   1      15.324569870556198      2.5443883581867497    0.044147846419593732
   124   1      16.492829042472245      3.6890985043268043      1.8993252965645289
   125   1      15.384520568219086      5.1396560198233043      35.931500319020266
   126   1      16.557047864795653      6.2924228571148495      1.6644393172769254
   127   1      15.329644282385484      7.5543436053288424      36.087703437032914
   128   1      16.524850472192899      8.6453961255641438      1.6414446632019906
   129   1      15.166222043944835      10.190125395444642      35.874595470369378
   130   1      16.594583134899619      11.371732875146927      1.7580296741181667
   131   1      15.457589732983438      12.614931102016124       36.01467723918006
   132   1      16.564654872132976      13.932507379507395      1.4741058501220683
   133   1      15.328226317277524      15.352600529592738    0.007170626661968515
   134   1      16.691357161633224       16.45806253904761      1.7459181197183744
   135   1      15.568021363145109      17.832367112116614    0.056386161041814271
   136   1      16.715532868753435      19.195859506158499      1.7962218020914733
   137   1      15.296074039704658      20.254360324933312    0.012759423598004119
   138   1      16.793723130051958      21.532411014698916      1.6980106739987701
   139   1      15.416201711705792      22.923910701349957    0.055602396447795764
   140   1      16.680736746185627      24.128934040172606      1.8495778200196356
   141   1      17.983529000381527      25.524472877496425    0.031463655550498959
   142   1      19.044411718935649      1.3202419378336618      1.8005394680203963
   143   1      17.786394792024574      2.5159889795062234    0.093175233348585892
   144   1      19.149186249564806      3.9648578323936543      1.7820514180776068
   145   1      17.960326356545593      5.0568995853839773      36.010842659633006
   146   1      19.142161654510346      6.5203159523849212      1.7453458765321674
   147   1      18.063320017269319      7.7285441197408815      35.924306863515426
   148   1      19.055419956944036      9.0344008432946747      1.8498969941621672
   149   1      17.862934266711779      10.163025776205487     0.12214320491386842
   150   1      19.150758003072017      11.707115246190497      1.9273446281290139
   151   1      18.059883779834948      12.830814962759757      36.081784592247402
   152   1      19.271384052858721      14.266503296649207      1.8475430631174956
   153   1      17.886678055412215      15.419355530231694      35.975163616223163
   154   1      19.273469667410389      16.773029576006245      1.8129631874705299
   155   1      18.016301346916801      18.009636501668393    0.040702493512378618
   156   1       19.21450868228991      19.182040995849967       1.781339229209538
   157   1      17.833277279363017      20.432186881159062      36.014147354338249
   158   1      19.196070969620276      21.677062545462238      1.7940765849336229
   159   1      17.862647186396874      22.861081123795508    0.010574222226387061
   160   1       19.25932487608884      24.236959205921881      1.8650251288405584
   161   1         20.354752952334     0.11041202869051893  6.6690667006241702e-05
   162   1      21.550968516342444      1.3355275266347149      1.8177142809293745
   163   1       20.26756611644862      2.5200451531319312      36.047427606248355
   164   1      21.833156951156028      3.9497885623644158      1.6889572015680987
   165   1       20.51277500511538      5.0904144287269677      35.955045948714194
   166   1      21.626098857958223      6.4954136926484187      1.8385453304139789
   167   1       20.45551727416672      7.8280631010137078      36.072686560764339
   168   1      21.617320967108778      8.9916585166992835      1.9688116733750678
   169   1      20.237358022692678       10.40611768705214      35.968856445496833
   170   1      21.611237605405069      11.410283686555838       1.811398019154844
   171   1      20.527031644410176      12.877960287234584      36.061754603436604
   172   1      21.793083252013069      14.117295901710838       1.735469903570573
   173   1      20.413107450994566      15.452175231439982      36.027551757461808
   174   1       21.76743660388394      16.505501624820035      1.6708952129000869
   175   1      20.519226097578979      17.913852902552939       36.06580223651779
   176   1      21.858770984781103      19.130804480422711      1.8718294866705838
   177   1      20.466269022776441       20.45365532985716      35.989353686668878
   178   1      21.579956598073355      21.748815006585289      1.7792484600231997
   179   1       20.51391590929444      22.934493904160682      36.038540354245107
   180   1      21.770369639801991      24.325681431827405      1.9036207694528449
   181   1      22.855437306670524      25.508092206474288     0.14223541178195107
   182   1      24.013800406838605      1.3247279899790125      1.9054193462033242
   183   1       22.91047210682979      2.4592166238573783    0.054439984386408492
   184   1      24.254654454120029      3.8293238349524521      1.8858427732268876
   185   1      23.094769792282971      5.0649908552285279      35.975534189072718
   186   1      24.259893796772158      6.5329338139023134      1.8531496756296408
   187   1       22.95685620040403      7.6858701277616337     0.22174595533384711
   188   1      24.204248064806794      9.0538529914587755      1.8789258992933344
   189   1      22.681449260798392      10.137529060147225    0.027126356251574172
   190   1      24.251953944583065      11.535210689916882      1.7513614166629641
   191   1      23.075320231501465      12.781786913784286    0.093592902607167613
   192   1      24.207499689848799      14.100418432301383      1.6915228150406378
   193   1      23.016698861627095      15.304457197180104       36.01960266055999
   194   1      24.287877981582294      16.500972450688725      1.7955350933731111
   195   1      22.941039139423911      17.956649362821274      36.042071291801754
   196   1      24.300578686161799       19.11746569870828      1.7553577041605295
   197   1      23.014358705071718       20.44871758539437     0.12746706277896466
   198   1      24.168047863119455      21.747747912021651      1.8508568556242251
   199   1      22.961552698627493      22.933698015203618     0.15973100241002394
   200   1      24.226468779768613      24.305324715364463      2.0233815266182336
   201   1    0.061991545884256767    0.022343603809969144      3.6367617124039646
   202   1      1.1757345590511097       1.452513038605048      5.4080866434554764
   203   1      25.429527599955936      2.6776677159024311      3.7468723173181218
   204   1      1.4403989157854655      3.9672216577612742       5.234648951887519
   205   1      25.411875819238034      5.2609424186657741       3.539516591651251
   206   1      1.2090742749010974      6.4931823263534953       5.151219499356003
   207   1     0.04181873456425473      7.9306458901714212      3.5861731107077266
   208   1      1.2307313335372987      9.0267623905927863      5.3681956162908202
   209   1      25.449247848249819      10.343798400919251      3.6065474840157781
   210   1      1.2595565321026503      11.368700097488087      5.5359637569468676
   211   1       25.44917846620713      12.878217786993522      3.7230319890392471
   212   1      1.3387852611911535      14.031810322458021      5.4138461642606961
   213   1    0.019280587394350131      15.318448165350064      3.6665765711671439
   214   1      1.3473972685904911      16.528881547740006      5.4752891503639347
   215   1      25.445969623347651       17.88399852954522      3.6102906689966727
   216   1      1.2882103752367886      19.041519921626154      5.4621360140282746
   217   1    0.064651129046877864      20.429294480027838      3.6788370529413665
   218   1      1.3242395827641271      21.640629632181454      5.4343110436825004
   219   1    0.023844965850833653      22.925730023486683      3.7381307008461082
   220   1      1.3125281544237148      24.290551549078636      5.3661600069066377
   221   1      2.6660273888291917      25.482090721986051      3.5865701374363184
   222   1      3.6499524808257515      1.2520771940433906      5.4274401176475493
   223   1      2.5433918128349853      2.6115301864678724      3.6840665606661211
   224   1      3.8402857942710993      3.9227898470579237      5.4041511358500927
   225   1      2.6131274075849298       5.221537867923181      3.5155244605665206
   226   1      3.8661391725812746      6.4093050800439011      5.4067089142444038
   227   1      2.5867543235004544      7.7886622154230665      3.5166388123270624
   228   1      3.8153627802421992      8.9373764509956466      5.4637348362622777
   229   1      2.5080862717481529      10.309629740447923        3.63048189479465
   230   1      3.7276770090529303      11.519058813285692      5.5343310473084362
   231   1      2.4492074662961985      12.794777371439334      3.5837041151259426
   232   1      3.8251003553872214      14.033263541083286      5.4695708328241306
   233   1      2.4933776860918959      15.239229142050663      3.6776034049074053
   234   1      3.6723230451526025       16.60144851822341      5.4551038828867711
   235   1      2.6157540966354866      17.773541656491627      3.6663857296324887
   236   1      3.9399534518232975      19.059485800694262      5.4713460078985801
   237   1      2.5713968387626158      20.342077528355745      3.6606564177930658
   238   1      3.9004886564991685      21.494381174658471      5.3452422129533259
   239   1      2.4369342443524693      23.054418252496713      3.7191190921563897
   240   1      3.7660862226060545      24.047109350357978      5.4936011835506093
   241   1      5.1323305333521549     0.13860267736405305      3.4801679216859855
   242   1      6.3841222495198977      1.0529555365528367      5.4407926190333766
   243   1      5.1595682038888659      2.5753100537012328      3.7417391744133099
   244   1      6.4877947635817526      3.7511814482037154      5.4118733379609063
   245   1        5.19045967678806      5.1915714055394506      3.4605934988858755
   246   1      6.3689081879919112      6.3131676851317406      5.2360447485183572
   247   1      5.0868317828578453      7.6969466343094251      3.6412795026405949
   248   1      6.1965010030026226       8.817155966819719       5.477727208564688
   249   1      4.8569938934164574      10.100091156169292      3.5058021296978139
   250   1      6.2553691107327705      11.417830105299858      5.1490686428517209
   251   1       4.991571112703288      12.730140014066121       3.635062610416965
   252   1       6.419985732254184      13.983529006844936      5.3617810071804994
   253   1      5.0755088335877794      15.333280115683696      3.5588594785426717
   254   1      6.5632118627628051      16.481313442622721      5.3849243291279176
   255   1      5.1621440695055583      17.719834715493548      3.5343693751649772
   256   1      6.3921116037774137      19.043913100123159      5.5477155129854889
   257   1      5.1442905810874366      20.297793926805628      3.6104650102683706
   258   1      6.4308265001780045       21.71369196848519      5.5481799178949451
   259   1      4.9937427541838249      22.995026489738976      3.6337214794880563
   260   1      6.1753319054805118      24.200940429774711      5.2915488137717865
   261   1      7.5573545395024064      25.325610476604986      3.6976120829841088
   262   1      8.7935626120330497      1.3047774063050064      5.3403973433692977
   263   1      7.5518264756038569      2.4282184490251901      3.6273141614499709
   264   1      8.9703363589917355      3.8509252319219058      5.2969322021112122
   265   1      7.6662979680373375      5.1041184219229292      3.5371411605013452
   266   1      8.8463532307330404      6.2296929886882051      5.5541113381256988
   267   1      7.6221454490689231      7.8331640441975621      3.5414081390121273
   268   1      8.8594343947851399      8.9550619644792775      5.4364162024163134
   269   1      7.6234633797339892      10.293723709851562      3.5616081659142558
   270   1      8.9713746983145057      11.597312631211848      5.4345729584459423
   271   1      7.5388364917865918      12.812264098587946      3.4929046869703613
   272   1      8.9238701099954305      14.086174128148917      5.3937588066843398
   273   1      7.7135237985360954       15.19754602109678      3.5387138380301164
   274   1       8.947435804374777      16.506906398419289      5.5389933851443578
   275   1      7.7599257092250147      17.733146990183872      3.5873107272398888
   276   1      8.7926612457042168      19.111212636101101      5.5107396966518118
   277   1      7.6586413401937694      20.322470564701863      3.7149873563302696
   278   1      9.0708992472546335      21.728352834106687      5.2014218022018426
   279   1      7.4869185611741571      22.742155472003315      3.6594485144423361
   280   1      8.9269912878283684      24.323820413064485      5.3995074730615933
   281   1      10.087009938669743      25.526383793229225      3.6308582567572425
   282   1      11.444806309490289      1.3268657291026835      5.3228096043123534
   283   1      10.245982447428847      2.5985648684104508      3.5653181291338898
   284   1       11.52095281303237      3.7215638140815339      5.4358560539114533
   285   1      10.258462603862531       5.147431287346711      3.4722574651264373
   286   1      11.480015534483378      6.2879211326954163      5.4241779319582593
   287   1       10.08830314574079      7.5661122928026581      3.6684513447230436
   288   1      11.593335774110283      8.9530000011478901      5.3543764265181935
   289   1      10.129918809045314      10.217073420334874       3.511611147737745
   290   1      11.628840123892287      11.513226717062604      5.1847275954737562
   291   1      10.294870143860695       12.81030714882823      3.5117088269761538
   292   1      11.424481321792447      13.975889794051181      5.4317465175118924
   293   1      10.476144601584856      15.334729568520302      3.6204167901463782
   294   1      11.491813443523311      16.577338452795754      5.4365353410186179
   295   1      10.490158519696218      17.746166774879068      3.5876542515804202
   296   1      11.494001755438108      19.219411022250043      5.3023125000549403
   297   1      10.267065912669569      20.379433144866226      3.6651964647084023
   298   1       11.48038305944266      21.743195975948897      5.4023698475991173
   299   1      10.360983397228809      23.093574466566348      3.6645595002502191
   300   1      11.638058695958447      24.299089695751697       5.394836890115525
   301   1      12.777920603800213    0.037323392689743121      3.5117245191059068
   302   1      13.979090309653571      1.2354366483528927      5.4662804490852839
   303   1      12.643853635495184      2.4796103507083314      3.6187407986909155
   304   1      13.923104788108228       3.767315132583132      5.2895987737882431
   305   1      12.782334504467974        5.00159832905572      3.5585362839754788
   306   1      14.030761978213063      6.3165450291492329       5.257149251002267
   307   1      12.826754354874975      7.6774414374642728      3.7229088826021894
   308   1      14.013607043298812      9.0244427102533518      5.3432545822066739
   309   1      12.686635965640038      10.124123977271376      3.4304550925458765
   310   1      14.062821784215936      11.559301049673696      5.3573545485511653
   311   1      12.784221599352467      12.882013849277012      3.3550727663590685
   312   1      13.920924244977201      13.889783093187223      5.2598308079694975
   313   1      12.798057394305236      15.336850014282472      3.4876861446195342
   314   1      14.165571980153723      16.372912159991902      5.2981273877379964
   315   1      12.861073833881267      17.691613449657769      3.6532560279451407
   316   1      14.162741729434645      19.205891354635554      5.3247883528907147
   317   1      12.748824418020815      20.560042376776778      3.6448341568399725
   318   1      14.226754082141898      21.665359249765821      5.5352010727240755
   319   1      12.831371900987168      23.021101444921371      3.5707461687652664
   320   1      14.018904724246442      24.222764321066041      5.3331518812342686
   321   1      15.394121197840775      25.367129515184637      3.5364927899920544
   322   1      16.500334535318107      1.3834712402611842      5.2532927724381082
   323   1      15.185437095882115      2.5325170209315466       3.517520554839098
   324   1      16.683070300606552      3.9257477874449607      5.2774991538007647
   325   1      15.374296918774945      5.2389420464823102      3.5930032459265266
   326   1      16.585655856683058      6.4696770236446914      5.4779502307379362
   327   1      15.200493153485345      7.6447596561601738      3.6239644364765762
   328   1      16.559868764141946       9.009575582415291      5.4638562866355516
   329   1      15.278965605320645      10.187190957989692       3.488771801841732
   330   1      16.607450124875363      11.434147371368004      5.4768478519476584
   331   1       15.26459532518806      12.710097152358722      3.5663181086073097
   332   1      16.533459412119811      13.990808627857525      5.3804570239365077
   333   1      15.698446666572039      15.200528146788397      3.5998375739830064
   334   1      16.558548324811287      16.541542904822133      5.3018011838229375
   335   1      15.432412560318124      17.879366782208436      3.4648682201122143
   336   1      16.671682252835691      19.242570432455128      5.5052447777415461
   337   1      15.406598235531872      20.463438133945278      3.6047759407287114
   338   1       16.57675968720708      21.769010141360436      5.4365832878453331
   339   1       15.36907025149034       23.00677095845354      3.6638551397091432
   340   1      16.678420600334015      24.265760876129484      5.3447746856074749
   341   1      17.915582147119508    0.062360769070759776      3.6774147893024698
   342   1      19.186576248876516      1.3011034702305675      5.4444784024365216
   343   1      17.853408071301363      2.6828696366348539      3.6114181826919798
   344   1      19.264627616142402      3.7877932372796481      5.3453936719960975
   345   1      17.952103534037544      5.1791509564358593      3.6102379190328282
   346   1      19.109090149293142      6.3970380970571483      5.4416540346326254
   347   1      17.860632728346332      7.6468243909943148      3.5539529081281103
   348   1       19.16858116685864      8.9738519108095254      5.4799732162095856
   349   1      17.798362015130063      10.134774489218351      3.6436487012997598
   350   1      19.285884660874643      11.530907181469738      5.4673561200761709
   351   1      17.758355294253843      12.872356202542701      3.5854747760244101
   352   1      19.137710040547283      14.012130877588667      5.4452537967496273
   353   1      18.085051240985152      15.310892117029853      3.6816399057462563
   354   1      19.097861590661257      16.596527465365181      5.4010368426015134
   355   1      17.822799187539058      17.886485413716368      3.7534400139637669
   356   1      19.198975462563745      19.105954995145435      5.4243678558132222
   357   1      17.947073131110756      20.465733288397516      3.6304563657036142
   358   1      19.162142474170992      21.697035535198427      5.5090124803018794
   359   1      17.908743708217212      23.016625876359708      3.5897385442013969