dump/Fe_1050_20/steps_61 (written by ASE) 

1980 	 atoms 
1  atom types
0.0      28.699999999999999  xlo xhi
0.0      28.699999999999999  ylo yhi
0.0      28.699999999999999  zlo zhi


Atoms 

     1   1     0.14047049118235172     0.17464434009765628      28.648207700939423
     2   1      1.3430311591653774      1.6152235477972692      1.4846963009118666
     3   1    0.060272743040911979      3.0614287690388164   0.0028464506910722757
     4   1      1.2941152720472917      4.3274628025982915      1.4123204761444286
     5   1    0.090596409823104032       5.841629233338006    0.073079955588229939
     6   1      1.6190501364926395      7.1534176124466464       1.413096885059359
     7   1      28.605220633235845      8.8009952623009973      28.624787692953305
     8   1      1.5073414817748474      10.203487390802467      1.4479527555914267
     9   1      28.671925566560631      11.502328413205706      28.674031682905778
    10   1      1.5127838348099321      12.910745104712959      1.3409450779230374
    11   1      28.587546423556038      14.301656166632531      28.483189793593997
    12   1      1.2573110487753087      15.692865263614051      1.4068099381054937
    13   1       28.68739362884391      17.247486606357725     0.11825334067285659
    14   1      1.5028050110659494      18.581712960866898      1.3899283898521375
    15   1     0.12313334659860525      20.346353551393328     0.23292125321770538
    16   1      1.7272104648760778      21.562316336832051      1.4695767292399071
    17   1      28.631300324249665      23.008891151130296    0.074765658239846142
    18   1      1.4696379145620206       24.42021285628287      1.5816484735117564
    19   1     0.14306977052398567      25.782203146339292       28.59785444694996
    20   1      2.9055709416902031     0.15270081121543624    0.045116418258987642
    21   1      4.3341932866198567      1.5701479720352383      1.6214606139901879
    22   1      2.6857091928016663      3.0380219955966741      28.642672615143997
    23   1      4.2450589000175167      4.1197972328272732      1.3623454150956047
    24   1      2.8929136522983949      5.4845952846089636      28.627166096195708
    25   1       4.269561036210054      7.2035466814308897      1.1058448178296643
    26   1      2.9197244807301117      8.7061393639362468      28.469604269869794
    27   1      4.5236392215998631      10.008409537321217      1.4602016458420843
    28   1      3.0157921386554771      11.477224082192667   0.0058971776288103683
    29   1      4.4180979353726642      12.882768502522316       1.322330474430873
    30   1      2.9352293160803633      14.402145757815786      28.550412429467418
    31   1      4.4280703573126328      15.649715024665444      1.4649561381055134
    32   1      3.0612927536498544      17.119946458207391      0.1586894388968404
    33   1      4.4268623652495451      18.697547043693739      1.5253583179815555
    34   1      2.9321366600443297      19.971699967121399    0.019363288131592059
    35   1      2.9800551499613457      22.869944528003064      3.3073308144705069
    36   1      3.1397583242000411      22.812760914648564    0.070042469645045319
    37   1      4.2220654200556238      24.190546627226194      1.5447544685740111
    38   1      2.8762298703483045      26.027422293319123    0.010830339624317285
    39   1      4.4028690583975498        27.4003056011891      1.4164010710239157
    40   1      5.8966049498984052      28.618421975008459    0.035831695806609817
    41   1      7.0615071678084851      1.3752857798749791      1.4878408773482201
    42   1      5.6321865366912256      2.9397282595868655      28.564391965587024
    43   1      7.1646615847825323      4.3182395920265755      1.3451401205359721
    44   1      5.7542237670223386      5.6832026725837235      28.527646725108372
    45   1      7.2942109526716923      7.0257575826524938       1.185016915866743
    46   1      5.8416756123085518      8.6598252941154783      28.579613307020598
    47   1      7.3660489029323077       10.22649984336172      1.4573199643974588
    48   1      5.8337522741065495      11.536873154690534      28.472066632284612
    49   1      7.2268041327405781       12.80887296544255      1.4701589457501298
    50   1      5.7619427546279622      14.359642527324057    0.059668945602061395
    51   1      7.3114875814199776      15.878217412471388       1.633076611763602
    52   1      6.0384518569570247      17.196796401919276      28.671403339817761
    53   1      7.2984845709718478      18.643189770024712      1.4411682789639837
    54   1      7.3177799835968873      21.457609287254737      1.2179557521928914
    55   1       4.498177270951536      21.591650791256011      1.6028809844160474
    56   1      7.2273269607267645      24.358208914161555      1.3463413250099152
    57   1      5.6631317458602206      25.697935139998915    0.042114789663082776
    58   1      7.1578684063751385      27.103578904898963      1.2110594351191608
    59   1       8.656343846798686      28.635217199956784    0.059584542985726428
    60   1      11.465468727894239      2.8948186768428856      2.9974665225708659
    61   1      8.3806703928731174      2.8100606434797082     0.18017712716517739
    62   1       10.12286521030196      4.2820862584995663      1.3144008086799195
    63   1      8.5197625392796557      5.5104365421791419      28.332964368672254
    64   1      9.8611243112086981      6.9147438496441316      1.3695721977186393
    65   1      8.6147731501351501      8.7679564122147138     0.16565482127464301
    66   1       9.977353154843362      10.165831336038332      1.7126689972429516
    67   1      8.7426680174960758      11.506980000772545      28.439623263216578
    68   1      10.150547334522484      12.867886610594146      1.4727274766004244
    69   1      8.3528070370843484      14.254664314002474    0.065504597046026389
    70   1      10.084285106271118      15.673154693314014      1.2912000584789551
    71   1      8.6223142511782846       17.14129771333587      28.560646466977012
    72   1      10.017577745554329      19.035680203025844       1.158973723952953
    73   1      7.1953252219438735      21.510083373265743      27.411565070442613
    74   1      10.126915749548283      21.657377153512698      1.3907172472995728
    75   1      8.8666371676122822      23.067285298272083      28.516594194309974
    76   1      8.6665407947583191      25.639584369811999       28.59345053394631
    77   1      10.155427804041668      27.225214651391049      1.4954419364392615
    78   1      8.6040737354330634      25.607017644327481      2.6544663682238605
    79   1       12.86983662689193      1.4870394369958835      1.5426189361069078
    80   1      12.953184415577397      1.5167644818642114      27.228065548497444
    81   1      10.205901908274985      1.6246029236627826      27.624300442832837
    82   1      12.801056917587468      4.2892750045365089      1.5370135453035332
    83   1      11.426123713206499      5.6495397767081945      28.584534398999185
    84   1      12.986919487558087      7.2626790149668832      1.1261801470490014
    85   1      11.175008568339411      8.7367936292991324      28.663405362642028
    86   1      12.871352228514359      10.042616812635321      1.5210729004159256
    87   1      11.410030323463772       11.48500220850838       28.62214666557502
    88   1      13.033702872549217      12.798421455198122      1.4258951330398311
    89   1       11.67351653712441      14.279539018163135      28.692010513684615
    90   1      12.747031131135824      15.691059173595793      1.2994706434707273
    91   1        11.4278741783742      17.308766843515759      28.637150961817998
    92   1      12.791225282990746       18.93758471644389      1.3570345325086355
    93   1      12.746155774281259      21.506999382746784      1.4205474195444037
    94   1      14.376734588777785      23.024836673406668      28.555304580378092
    95   1      10.021496317573073      24.351163854998585      1.2440086355530522
    96   1      14.286853710038203      25.706725540657271      2.9940561659455978
    97   1       14.41634569505073    0.060033936370828579      28.620285838970961
    98   1      11.620637046098452     0.09049334715087444      2.7416071491383267
    99   1      14.175439571710154      2.9526976947051518    0.043518938445004159
   100   1      12.510817889712856      3.9724976563574992      27.264571804813801
   101   1      15.605654418586695      1.4130553190892581      27.257816263896732
   102   1      15.774681195003886      4.3309379848881262      1.6140571894402567
   103   1      14.070188645976547      5.4116428570356492      28.583346184542652
   104   1      15.746775274184932      7.0144996523158154      1.4974803911813166
   105   1      14.316670989606735      8.7001623373012489      28.694155000706633
   106   1       15.83903493032178      9.9463127835986214      1.3855828410941982
   107   1      14.213171045840923      11.244190225007779       28.64406266981527
   108   1      15.883234621942428      12.706143266512893      1.4936375638642172
   109   1      14.460882024655554      14.317182922446168      28.691326896505359
   110   1      15.770839324927378       15.90705516981965       1.489572323260359
   111   1      14.221740171914385      17.320874737028948      28.659118902204924
   112   1      14.137300603897991      20.258617723977505      28.585433294756875
   113   1      15.734197244731195       21.63825393663252      1.0768575167974852
   114   1      12.967124063685191      24.301341711867668      1.1641583444896229
   115   1      15.767576061578154      24.378585219313806      1.4686072588827765
   116   1       14.42437659659592      26.127777561077345      28.661270040668725
   117   1      15.824368246147813      27.234485683057144      1.6838101839590762
   118   1      17.278748408544583      28.655608420529905   0.0066604589417010931
   119   1       17.11353996494525      2.6728007657205919      2.7396820416679821
   120   1      17.273487705429027      2.8760363403107894     0.28220114196333268
   121   1       18.34605626894049      4.3436155405236212       4.140021212209823
   122   1      17.123153549956619      5.5987207910347294   0.0087169981175293215
   123   1      18.627356334367271      7.0961722971428731      1.4574597750439342
   124   1      17.102905883784022      8.5037040948955411    0.014172989665371467
   125   1         18.512229078175       9.927687970463511      1.3999978797417618
   126   1      17.227388778337847      11.458583659094895    0.071107653767296428
   127   1      18.523430820153912      12.753663323454131      1.5257050210562835
   128   1      17.056513992223845      14.284119490658723   0.0086772486789868757
   129   1      18.710908267932059      15.760171010245475      1.5510604605270479
   130   1      17.248929712047634      17.396389005480227       28.56395102611593
   131   1      18.657633457018598      18.679221497165766      1.4534963801224425
   132   1      15.745851660849537      18.885374150667566      1.1637839711552478
   133   1      18.689693830315743      21.485677026571466      1.2748080165655662
   134   1      17.339474887111226      23.071308015694608      28.624051294948899
   135   1      18.738052307918693      24.408506736193029      1.5246367742235409
   136   1      17.244946636873728      25.875785111365396       28.57672010237539
   137   1      18.639119173508028      27.256608871651103      1.4246352523072352
   138   1      19.936823045574027     0.43218174857957919    0.009559250231131947
   139   1      21.539691633838775      1.5668529094908079      1.3613782876399565
   140   1      20.130760272328658      3.0354219405540555    0.092686403206687265
   141   1       21.69523966576897      4.2737010681054777      1.3717982545034588
   142   1      20.136354047076711      5.6605288809913734       28.59443281655631
   143   1      21.487871600585382      7.0505340280251501      1.3866655692012628
   144   1      19.997546494612983      8.5804808391864906      28.626539379673886
   145   1      21.453086315971454      10.153279404149151      1.2193951153229483
   146   1      19.894829634715713      11.614973952542131      28.649106991265725
   147   1      21.366015081606285      12.879299445679543      1.6278535089113109
   148   1      19.936857498450305      14.341768464299461    0.022311047123116615
   149   1      21.344495235690214      15.803896538874655      1.4790780426047936
   150   1      20.007623207713074       17.16794987687247     0.15165848141912186
   151   1      21.493294336170681      18.764521676758545       1.387114966008937
   152   1      20.122505925123331      20.142923019908473      28.633358291338173
   153   1      21.295389685632731       21.66772843557478      1.3044438912941927
   154   1      20.009224026601029      23.072788703692531      28.688377469901909
   155   1       21.29630296617033      24.635336514676862      1.4688104942499205
   156   1      20.169046312495716      26.078473156278317      28.665199759129482
   157   1      21.280684145733844      27.222953184061922      1.4184482271576486
   158   1      23.013694028556579      28.568037640463103     0.11066910305927415
   159   1      24.534885372672093      1.6746715475525895      1.4362405641813079
   160   1      22.847279797553533      2.6887764324308367      28.536426818356858
   161   1      24.331073217844889      4.4258751840897892      1.0812398747792362
   162   1      22.965840898123059       5.825311327439092      28.566835582316749
   163   1      24.237054255702589      7.2996207373525426      1.5494532114518844
   164   1      22.798458538754296        8.54966588257202      28.681340499624064
   165   1      24.371242189516391      10.218700563718702      1.4376468387571892
   166   1      22.727652687598631      11.641092745336048      28.568880499892103
   167   1      24.343082139045215      13.120733867633099      1.5237458339329684
   168   1      22.879650633722985      14.312201543241061    0.031818634559454183
   169   1      24.580817940771883      15.590808066605938       1.552968518237277
   170   1      22.916042319364763      17.213255115381049     0.15777973830378181
   171   1      24.241164911794634      18.706455342780281      1.5575707853365428
   172   1      23.000739276847106      20.351173194196289      0.1021096199239422
   173   1      24.503405095448755      21.612677348032015      1.3830121433972411
   174   1      22.648482402184285      23.118522860143951      28.616417039508523
   175   1       24.42035525461678      24.326996123137473      1.4425445200350957
   176   1      23.035318833644645      26.027897364915745    0.099725657291594536
   177   1      24.651189856246027      27.421952141912065      1.5010608963390606
   178   1      25.888320461613386     0.12180716566806497    0.059126019886650748
   179   1      27.520802827422898      1.5510510171653429      1.4667989958054586
   180   1      26.161404104548883      3.1358047903161155      28.599541205211061
   181   1      27.066432857810597      4.3075722462335229      1.5815257475244384
   182   1        25.7898864247685      5.9269697729100042      28.571126933670243
   183   1      27.227588639038625      7.4510820230657568      1.4114248141566903
   184   1      24.318989340313422      10.165363592023018      27.384320162545436
   185   1      25.728734981397508      8.6266158589357183   0.0070284461205005876
   186   1      25.738242078811659      11.459116210972853      28.628979223375623
   187   1      27.245065226827251      13.043088658320297      1.3959316028067397
   188   1      25.846899739364098      14.405783091035042      28.617333821906673
   189   1      27.218812455298327      15.742682945266848      1.4110586445176641
   190   1      25.625857475363528      17.219516581673528      0.1369161043439249
   191   1      27.132947225196411      18.773576805009515      1.4766447100014941
   192   1      25.911155465270699      20.115937017299853      28.497448907090732
   193   1      27.343067315728504      21.450482411087727       1.688785309057879
   194   1      26.181154268820983      23.091155532143208    0.047703709320410452
   195   1      27.381898327717252      24.550632361248109      1.5136690715089338
   196   1      25.821136055898929      25.798461479339192    0.025946668902713552
   197   1      27.505707900316686      27.319525566765467      1.4722276251455473
   198   1    0.092342436743945308    0.017585114731616797      2.9632467349428158
   199   1      1.4123693393941161      1.3579751606104886      4.6328245755658344
   200   1      28.687105163156748      3.0885369114770662      3.0251423794739787
   201   1      1.4799235566757845      4.4426007130536522      4.3556207015351331
   202   1      28.669047104359922      5.7582859052235911      2.7349194135137043
   203   1      1.5414268039574508      7.0384793298300625      4.0778990423087729
   204   1     0.21200933800903446      8.5103979019873037      2.8971794701541418
   205   1      1.3685100280433637      9.9299192471703872      4.3627465873668818
   206   1     0.11121352093703157      11.376360108258547      2.8923280508064431
   207   1      1.3324080853394444      12.952550747855964      4.2217459735746701
   208   1    0.019791157435930625      14.389533983506233      2.9099833741706891
   209   1      1.4622427348482361      15.785422885122419      4.1609330365263437
   210   1    0.078591743786729631      17.260809848939385      2.8390428043035851
   211   1      1.3775146448219995      18.705645186549376      4.2715618717514641
   212   1      0.3093121494019796      20.122314069880829      2.6813585272036771
   213   1      1.4419028275574657      21.411118639990029      4.3310307640766545
   214   1     0.16474343669198258       23.03520824741036      3.0663772439537973
   215   1      3.0913136881994911      25.886245796546479      2.6775535341098018
   216   1     0.17218198268799548      25.765424635177681      2.9287197597708143
   217   1      1.6663871262302796      27.251396982471089       4.335546281576323
   218   1      2.9394207803801362    0.012229819628623937      2.6851521725824328
   219   1      4.4620372151094099      1.5109508003054546      4.1495195743414728
   220   1      2.7714489606827537      2.9024490068672688      2.9117104153580908
   221   1      4.5279818230399549      4.2829980555278189      4.1395716786903174
   222   1      3.0832033025447183      5.7012578954665134      2.6456398357276378
   223   1      4.4383368444215145      7.1358344384683825      4.1071885315061083
   224   1      3.1257737542283879      8.5568127790710999      2.7990439182640783
   225   1      4.5693651871429184      9.9147068312363675      4.2595461548701943
   226   1      3.0925422829805291      11.424012074747402      2.8326891994268282
   227   1      4.5919009274689566      12.997617470893822        4.25297810139452
   228   1      2.8973935037984062      14.330402787412684      2.7687226897651618
   229   1      4.1861408671249576      15.866396428786388      4.3313490089486786
   230   1      2.6973206103599741      17.218470950482217       2.704665340115219
   231   1      4.2618569688803172      18.653549851039806      4.3644735031252413
   232   1      2.9941666904964679      19.997782658532529      2.8603232868549617
   233   1      4.3801733984195144      21.356185073175581      4.3852552903144302
   234   1      1.5670057794976071      24.583341863210169      4.3844476865228232
   235   1       4.182664121974156      24.389636416473621      4.6027098737926595
   236   1      1.5133627272453527      27.192878444433273      1.4592535966923932
   237   1      4.4538505791834861      27.270600800452023      4.3692622248471338
   238   1       5.618730433814382    0.036650029803286209      2.8409335651902881
   239   1      7.0964360406354521      1.5571563854268777      4.2064572156453597
   240   1      5.7931938550353834      3.0461864444286952      2.7753785249299545
   241   1      7.3611501671102246      4.3663193984315916       4.481561130355507
   242   1      5.8677095418944978      5.6635687489506292      2.8648932050241229
   243   1      7.2644291213851613      7.0881696625800013      4.3557755220347962
   244   1       5.979719826369962      8.2767164202384667      2.6733296487815319
   245   1      7.0866044684595657      9.9688598165732731      4.1657773191574634
   246   1      5.8678774232553712      11.542992217451438      2.9319326185602659
   247   1      7.1789952507623536      12.969251356353929      4.2517021033319589
   248   1      5.8152755709952064      14.364783588041535      2.8219034855726819
   249   1      7.1964668729259671      15.782451463606352      4.1528247854685718
   250   1      5.5965307777634496      17.337003217557115      2.7781686567376935
   251   1      7.2410949861145708      18.769110219807143      4.2029520378853693
   252   1      5.8971439726867541      20.107952419445599      2.6498908564460062
   253   1      7.2739809070751571      21.449704256274593      4.5920368083615086
   254   1      5.9296966288171831      22.957477889739391      3.0362619383874092
   255   1       7.423032114039084      24.327353722641227      4.4636111756297767
   256   1      5.7414545376455974      25.645001999389795      2.6453867034682053
   257   1      7.4021799117824072      27.369197869541249      4.1344503781608832
   258   1      8.6925511446299293     0.10451245486133312      2.5806620816496215
   259   1      10.057669238871318      1.3367838077301486      4.2757096418139895
   260   1      8.6129481670146859       2.931563327917349      2.8780734174739511
   261   1      10.135848408324463      4.1628688588697873      4.4292234761661939
   262   1      8.6618888279156661      5.6900858219913548      2.8285964372203103
   263   1       10.15665491978663       7.271953963674977      4.3219419172909861
   264   1      8.6898069351295302      8.5695708060420177      2.6931014871224881
   265   1      10.031151351902494      10.111118670582183      4.1575544139281213
   266   1      8.5459284524235812      11.582864040981448      3.0655340132608049
   267   1      10.131003977082045      12.980696873789711       4.388473135715306
   268   1      8.8101089979946376      14.423386753131465      2.7426363710563018
   269   1      10.207079463125551      15.988172654067341      4.3226684275908349
   270   1      8.7736045932181774      17.291797623813931      2.9320374810486238
   271   1      10.330765270473252      18.729499561965323      4.5592012108210875
   272   1      8.5704228387942347      20.199067652554195      2.8527860152049027
   273   1      10.045018922973906       21.44870642331189      4.4141066851737696
   274   1      8.6087219570044642      22.826522523892297      2.7380302647559565
   275   1      9.9822054222449204      24.125382696223479      4.1955737981935224
   276   1      10.093968403553303      27.281762837617848       4.084344467717413
   277   1      10.087109167427132      1.7359243010218384      1.3732872823245084
   278   1      13.032537398264227      1.3138729375801967        4.35247506007771
   279   1      12.971488873701508      4.4710896189708702      4.2285995635706755
   280   1      11.368473179964335      5.8163212058898113      2.7311245203050354
   281   1      12.693768522223335      7.2483233126122721      4.3459834205423435
   282   1      11.434161372499149      8.3379409862140186      2.6214322262712453
   283   1      12.758586233109536      9.9134036581079279      4.1124978828552905
   284   1      11.466595850669743       11.47227961869976      2.9645034399247923
   285   1      12.936049434549817      12.754651221039355      4.2225568552853439
   286   1      11.422776097775349      14.196498139460683      2.9622456057729991
   287   1      12.906724851330365      15.871771038080345      3.9176359301821848
   288   1      11.457485449994365      17.517714168114903      2.7442354173333907
   289   1      12.960460085389371      18.791430462465076      4.1878793542087518
   290   1      11.383828428316834      20.169820111085802      2.9641603549825568
   291   1      12.865165603499745      21.584494176490249      4.3257320703023394
   292   1      11.631605055843696      22.920721666504203       2.864715822308336
   293   1      12.803265448114335      24.380631981149726      4.5260007972780283
   294   1      11.548169231534231      25.576299203833017      2.7622429776161317
   295   1      12.935295389981057      27.195673978267166      4.1652802935948809
   296   1      14.254395547335386    0.013154447597480785      2.8457459218757428
   297   1      15.934345314920067      1.5700927639208657      4.3292758122451866
   298   1      14.288210066986597        2.82987618646631      3.0034610936311821
   299   1      15.662659340113349      3.9853845674627535      4.2960375834423559
   300   1      14.031106019709329      5.8424830825695597      2.6960493673046479
   301   1      15.572642429148669      7.0437982528640966      4.3441979605811394
   302   1      14.330053889470252      8.6217829132263457      2.8095008284823386
   303   1      15.775003464678813      9.8621083318877698      4.2918836357669088
   304   1       14.29481921918463      11.558693599080682      2.7860200036728644
   305   1       15.68975259131145      12.871271283692677      4.3008094566087181
   306   1      14.395841428148131      14.418162767894037      2.6657260154393043
   307   1      16.004185013567938      16.077797447722016       4.253330979106491
   308   1      14.344321638825088      17.389140291512298      2.6994012404643177
   309   1       15.85626565078303        18.5144406026388      4.3943115192979416
   310   1      14.332901613633677      20.193090412926043      2.8481154193194338
   311   1      15.775324650848839      21.586889059180898      4.2423164855304378
   312   1      14.208589974276688      22.947247228850543      2.9108966523395017
   313   1      15.737792224872582        24.2922044041077      4.3709662326519938
   314   1      12.894011750464934      27.124589512030703      1.4450602822941607
   315   1      15.811957173801378       27.44327574701359      4.3309397174936368
   316   1      17.354864699252765    0.055316179366400452      2.8520684173615001
   317   1      19.850936083256684      2.8779547603048483      5.8196319180335321
   318   1      15.752712351710342       1.146024692364449      1.4864751235266438
   319   1      17.107436407371566      2.9221444305435873      5.9546105133330203
   320   1      18.535377539822743      4.4411949908914723      1.8271777325920096
   321   1       18.46245566673068      6.9705181733362682       4.159708540672761
   322   1      17.177445598527605      8.3481597606517344      3.0425930452960626
   323   1      18.572932632053149      10.014318833693798      4.4339151080906305
   324   1      17.074552896252349      11.438293292893281       3.018144417041511
   325   1      18.637210093601137       12.70435115221251      4.1702983080669744
   326   1      17.248534007438707      14.416088946286932      2.6829990645954336
   327   1      18.654716456502641      15.829258829856318      4.1794563212973577
   328   1      17.200985855775308      17.249711827125207      2.6300859639278658
   329   1      18.477980300802752      18.705811589908496      4.3399229370693178
   330   1      17.235287886357771      20.173963113063749      2.7801549675212991
   331   1      18.708733017411397       21.63478637552161      4.3546521090017496
   332   1       17.23584242159961       22.86043945249493      2.7071635437068138
   333   1      18.633900118115587      24.539405139697582      4.3560044114165395
   334   1      17.081132579340352      25.774508990150881      2.9823900531772116
   335   1      18.487088023270498      27.229965593649506      4.3374027973691627
   336   1      19.992702982093679     0.18783712736060357      2.8301332623531263
   337   1      21.624712953825757      1.3810882984851462      4.2678349867674799
   338   1      19.962414461509244      2.7598758249859308      2.6164385811108231
   339   1      21.442478562298657      3.8498093137347729      4.4742894084745455
   340   1      20.374167078998141      5.5504632643857841      3.0079759450016383
   341   1      21.686428464385678      7.1887287234505033      4.0190311443828763
   342   1      19.857173306048281      8.6611666664257374      2.9877633409604347
   343   1      21.445208778419584      10.004197315460218      4.3028295874787874
   344   1      20.079608653459871      11.400543211189001      2.7529005964555142
   345   1      21.164827536242477      12.995320864564709      4.4326104373118111
   346   1      20.006645487204704      14.246919778700954      2.9425836479298524
   347   1      21.462130488400398      15.639075813671637      4.2133957015753429
   348   1      20.056234880071358      17.187747191793044      2.8244905931726989
   349   1      21.561455112956384      19.017107291849637      4.1849735709965463
   350   1      20.123547408043699      20.215217242723821      2.8963374117341458
   351   1      21.481163513958979      21.577094113550501      4.3771788542960497
   352   1      20.178719631775021      22.966197102520081      2.8995224556528645
   353   1      21.646895399439369      24.347632869457414      4.2562111888107106
   354   1      20.054257986931987      25.853441498703845      2.9663912373524894
   355   1      21.512881887460001      27.167319091739607      4.3173477627567012
   356   1      22.878641605402201      28.692309071346301      2.6785363451730295
   357   1      24.290580027630526       1.458560321763456      4.3010497200267022
   358   1      22.996177952021565      2.8746759526929497      2.8558325125852297
   359   1       24.40878901171196      4.3530192025773777      4.3199649650653082