dump/Fe_1050_20/steps_81 (written by ASE) 

1980 	 atoms 
1  atom types
0.0      28.699999999999999  xlo xhi
0.0      28.699999999999999  ylo yhi
0.0      28.699999999999999  zlo zhi


Atoms 

     1   1    0.025845443967115835    0.093068948844895041      28.553311399157639
     2   1      1.4985808759726644        1.36795753121736      1.3701685218459247
     3   1    0.065660597548242217      2.9344675698879801     0.10713237196350733
     4   1      1.6824181509028122      4.3029172999212442      1.6448023900850997
     5   1    0.031129738399591093      5.7210205965889047     0.07724292485144138
     6   1      1.3737437962033829       7.098212241296725      1.5622178348209681
     7   1     0.22590737165154659       8.470457454722661      28.687971449228531
     8   1      1.4125041065322548      10.078679539468402      1.4948020820669052
     9   1     0.12788938228968866      11.385402124330797      28.541169958774447
    10   1      1.3239869141528302      12.941181543758212         1.2339342388604
    11   1      28.495276875083125      14.447553521242673      28.622743086738339
    12   1      1.2759524411501733      15.897385989949486      1.3705738235276386
    13   1    0.013841077453642426      17.307900740743879       28.61498663711804
    14   1      1.5900922695637756      18.841215670071939      1.3225951180126225
    15   1     0.11401871909679644      20.284229120878958      28.555080631205673
    16   1      1.6302856396707739       21.68370830056185      1.3374950634267868
    17   1      28.606693459712801         23.040609752803      28.645977890791585
    18   1      1.4110664392553884      24.369025953930169      1.3723386456597957
    19   1    0.038397177966718148      25.949043357227161      28.566576973226308
    20   1      2.7443893656637441     0.27021656174691949      28.547087281965307
    21   1      4.3196130149512859      1.4680201132094679      1.4297235433273829
    22   1      2.7971028560953988      2.8371491341238211     0.11729888655421526
    23   1      4.4240881347931591      4.2065905489439288      1.5481270363324129
    24   1      2.7382129701626119      5.5775643935363677    0.046291537443062095
    25   1      4.2792263012504028      7.1836715110008296      1.4335037832462714
    26   1      2.9894924434099055      8.5803988458927059    0.024912856110029222
    27   1      4.4408835644225855      10.147215884697852       1.407523475186554
    28   1      2.9125254224380521      11.400850234685249      28.612209260299185
    29   1      4.2206269282758893      12.756156203591356      1.4423951845773317
    30   1       2.868141411525917      14.353454081663505      28.606453373375789
    31   1      4.5215076152421103      15.784562091510518       1.534236821171111
    32   1      3.0202089877764959      17.050352402317305    0.042244981601061236
    33   1      4.3733621077628984      18.685567282980546      1.5768789983525142
    34   1      2.8921142721999109      20.036495802662362      28.569819936067436
    35   1       2.876506941241229      22.936853317539651      2.8744864066568705
    36   1      2.8770918533433667       22.92489075161205      28.693955562644422
    37   1      4.3821843989686284      24.343449927084833      1.4008144402727334
    38   1      2.8450791108403579      25.804833938689715    0.020485863440842425
    39   1      4.0820875971686954      27.335723042261243      1.2193966794531419
    40   1      5.6752370141244786      28.600116767489798      28.579945679608613
    41   1      7.2190875772384437      1.3509604843407255      1.2787791521436696
    42   1      5.7197194903834898      2.6768306597736902    0.024069704713167522
    43   1      7.4471068370521101      4.2731558060207337      1.5210904829345513
    44   1      5.8298221043270591      5.6201875098352376      0.1234406333744458
    45   1      7.1472429407120801      7.2212246266163191      1.5689179693180899
    46   1      5.7199879726573126      8.5409576658927389     0.26084647413880452
    47   1      7.2653725545071044      10.128451691411726      1.3780327393485763
    48   1      5.8897868099495607      11.527505790695383    0.099801984969678945
    49   1      7.1182945453094995      12.803748307172603      1.5620644083154387
    50   1      5.8870579329324766      14.330095379002458      28.675448071060888
    51   1      7.1669011643220575      15.745566164934912       1.393519994810003
    52   1       5.810176750054465      17.357739281000669       28.52236714143449
    53   1       6.963302256984103      18.600532447009169      1.3886881061506537
    54   1      7.2576735905811747       21.44367439925395      1.1224590465873792
    55   1      4.2655349328041146      21.629697148341904      1.3488518712198712
    56   1      7.0178426063106683       24.31969635852402      1.5048817626360109
    57   1      5.7874268092109133       25.86440560348931     0.03664469160427189
    58   1      7.1751581440752394      27.278447991409475      1.3619373638061234
    59   1       8.723033211242905      28.621682352742869      28.649150690199818
    60   1       11.59611848867439      2.9513659475833145      2.8591221549883805
    61   1      8.7022847767716929      2.8495748809226376     0.16755334783393894
    62   1      9.9622157499644075       4.395515550310237      1.4896696648522942
    63   1      8.5430944852129969      5.6900987546990827    0.088431908780944382
    64   1      10.202016604190062      7.1088554112302624      1.5594691866201615
    65   1      8.6975817041321832      8.5776670248205544     0.13454553170245154
    66   1      10.034622827627855      10.149902987691627      1.5397322985190038
    67   1      8.5888806189518974      11.565479865142043       28.68692747398784
    68   1      10.048584081536685      12.940681287776606      1.5523342213640716
    69   1      8.7296165034547748      14.188323874190495    0.031618177760799317
    70   1      9.9398401277737474      15.649812930606434      1.3684974405737866
    71   1      8.5462666260013762      17.183517341668782      28.523507216913874
    72   1       10.04041977733206        18.4602788424578      1.1993371327531128
    73   1       7.048882161483677      21.588803316860847      27.261742852651679
    74   1      9.8579160868492171      21.550558500724456      1.3395490549009306
    75   1      8.4615945083869679      22.943431386945132      28.574622578067135
    76   1      8.5702240484573569      25.836850844404101     0.13379888516564062
    77   1      10.013055848401867      27.050661467203454      1.5478831912667044
    78   1      8.6110693920785497      25.710460136779172      2.7966012412471177
    79   1      12.970889148337172      1.4868385617513467      1.4970439946705365
    80   1      11.533485568086675      2.9802295787063957    0.088168575864347093
    81   1      10.005122039868017      1.4237824693398715      27.256026325068262
    82   1      13.048481294142912      4.3370708237447744       1.672449138278626
    83   1      11.625129540516266      5.7130193221815135     0.11432303791094679
    84   1      13.019164687761995      7.1230616070676609      1.5211090816527859
    85   1      11.488238734449064      8.5887737253596583    0.047285474705824872
    86   1      13.072958418784856      10.109155310938682      1.5025696803773021
    87   1       11.53632863661181      11.320358777657672    0.079988188282607162
    88   1      12.983637125392875      12.842295288826953      1.5839229451934453
    89   1      11.494320488410436      14.257916039558193     0.10165823112697586
    90   1      13.077216658928865       15.69701779506911      1.5388716111377461
    91   1      11.581089645467785      17.079299832080817    0.068406953952989985
    92   1      12.939058424148023       18.68881361846833      1.5123035394085043
    93   1      12.913532600935177      21.734529027523152      1.2304773030421059
    94   1      14.357308938894286       23.17743546505794      28.511921043934549
    95   1       10.10422516095281      24.267875220074554      1.5039514750289302
    96   1      14.331007795452768      25.780648817771915      2.9894790018470156
    97   1      12.889385229861007      27.198339958473557      27.389530181355866
    98   1      11.345310242220393      28.688128494042751      2.8196854598739143
    99   1      14.711017182465808      2.7115894608062585     0.11127773944771216
   100   1      13.002366368739382      4.3993443171350712      27.367381962443659
   101   1      15.735255216795268      1.5518402020751427      27.288348858710481
   102   1      15.840328005999051      4.3511431609480153      1.5989862147822913
   103   1      14.383711555202735      5.8022864359465141     0.15515061017171075
   104   1      15.785552218294747      7.2207764070476177      1.4670502547603981
   105   1      14.533355578470623      8.5574343085730398   0.0032478461339678819
   106   1      15.820332260861454      10.020931370015424      1.3663506212136425
   107   1      14.722251649263859      11.486020915273249      28.672344590400559
   108   1      15.994708303768324      13.021096805756402      1.2802054351521306
   109   1      14.524479847451186      14.214738537898034      28.584203353785188
   110   1      15.978961383257829       15.62084814607838      1.0941166580957096
   111   1      12.864031967880203      18.976516383602917      27.260458435437236
   112   1      14.269629683082913      20.266882033883114      28.504216818575404
   113   1      15.797750436885286      21.614857325522546      1.3226245538126009
   114   1       12.81835170857455      24.552533961190552      1.5538035686423306
   115   1      15.818935215985274      24.407544741043154      1.4745206243345916
   116   1       14.26683203181766      25.748528107451193    0.099664212363825277
   117   1      15.565508137317437      27.249947951566355      1.4003975379687976
   118   1      17.092271006163816     0.23247298008341213    0.094489650160448829
   119   1      18.657233930576545      1.5519359369669703      1.4880470530312424
   120   1      17.170384854996819      3.2419203349370198      28.656714979114756
   121   1      18.542268840932781      4.2636870691605813      4.4621697391881145
   122   1      17.215174661469483      5.8472327935666817      28.583439934295463
   123   1       18.62030602808014      7.1989714847884834       1.466207945877124
   124   1      17.319191686423771      8.5427883353216441      28.569227138087445
   125   1      18.628882648066561      10.141411421849673      1.2872810724256623
   126   1      17.520471368156397      11.518779643916599      28.546602828243451
   127   1      18.819853185782634       13.06465292226331      1.5452327463306563
   128   1       17.55620206902632      14.415016509243054   0.0035270217071911372
   129   1      18.652789064120768      15.864756649949529      1.6607139025490152
   130   1      17.321205494841408      17.139977129622697    0.066755983170935479
   131   1      18.979450346957695      18.682741473772886       1.359275927545412
   132   1      15.763582951595842      18.929672325525111      1.3739441515351012
   133   1      18.779101421828774      21.556218257702874      1.2004677279700224
   134   1      17.163342962517099      23.170961308613538      28.637652020559088
   135   1      18.488502950452471      24.427332752214514       1.200606041524042
   136   1      16.883402634442728      26.049750015432476      28.688831391975668
   137   1      18.751001957271754      27.306671991431152      1.4192174951306478
   138   1      20.041970322859523     0.11568421490748237      28.675327161197288
   139   1      21.716890910967962      1.3094054090009413      1.5715800756299236
   140   1      20.057244448684518      2.8668727114640316     0.19388302378545166
   141   1       21.34079016764057      4.3360492045937056      1.4304881537011627
   142   1      20.036125729926599      5.7198566826231572     0.13641828438446743
   143   1      21.356040075763733      7.2283067669030503      1.4886941438415191
   144   1      19.946176046160716      8.6416357331054137       28.68793430188601
   145   1      21.616085481872975      10.044335247633395      1.3937017350441701
   146   1       20.11432108455007      11.731247875732397      28.661979407236231
   147   1      21.586288024329299      12.876280746200075      1.5060765674202348
   148   1      20.190970544081793      14.462978352560713      28.604164904622749
   149   1      21.593334794435975      15.717441022391439       1.517556944122076
   150   1      20.215101785939591      17.129822132380717    0.043739803426205842
   151   1      21.457776997986848      18.656328811438467      1.3061155822945794
   152   1      20.236458111690389      20.058982749644443      28.566850656207496
   153   1      21.668018903134303      21.734871561395977      1.3910196818755489
   154   1      20.044556168449468      23.229261538719758      28.621207114685731
   155   1      21.433109732070712      24.496396882947085       1.315855830773536
   156   1       20.02685061322282       25.97005849290413    0.078736578971552298
   157   1       21.54295174245318      27.346590073416461      1.3350125377426354
   158   1      22.899594894267555      28.633222150381528      28.326540906959281
   159   1      24.306602854102298      1.4172121772715407       1.252430051355965
   160   1      22.942457644509599      2.9235080119325576  0.00062099545463070054
   161   1      24.408928055597567      4.3307972470906977       1.329563866447836
   162   1      22.830279342809803      5.6015665184745274      28.659701659464293
   163   1      24.231038116575657      7.1854991357006011      1.6085650887832785
   164   1      22.965955556882154      8.5176287495588703     0.12132526322067189
   165   1      24.453914883865011      10.162091855075335      1.4640580317917729
   166   1      23.000482443263245      11.501497323662216      28.625675673088466
   167   1      24.498526107236554       12.97276049321033      1.5520570069889783
   168   1      23.081897860019396      14.297696554576419    0.061627830938084646
   169   1      26.165720347477702      14.355039317859362      2.7201240987487707
   170   1      24.515448952307384       15.54030568676667      1.5598489579217474
   171   1      24.447258200558302      18.721389688043494      1.3809767446149184
   172   1      23.014958115050895      20.190564735244873      28.685877293563465
   173   1      24.557822675069591      21.425648303978971      1.2790973896221662
   174   1      23.106967605395614      23.018029847722612     0.17290089138905385
   175   1      24.350619950827763      24.600927371048659      1.4366887988666224
   176   1      22.928941826951469      25.944713370664292      28.557788276597762
   177   1      24.228243777926227      27.221296762876015      1.2503979020050915
   178   1      25.580797587144055    0.001058366831718486      28.522659594865519
   179   1      27.290333570580671      1.4304635554901781      1.3715958034184941
   180   1       25.74173081910762      2.9359657815923477    0.033131930898946463
   181   1      27.358140689352865      4.4269875149223132      1.5090379171341048
   182   1      25.916985916134532      5.8617285748002992      28.634475100829135
   183   1      27.345542421842882      7.0440219964874915      1.6092241728299761
   184   1      24.359512475988826      9.9212184666229355      27.381982642203397
   185   1      26.015074850862252      8.5583200659255212      0.2097179504110499
   186   1      25.807868730323268      11.589691925687742       28.54724700881934
   187   1      27.580204776756542      12.847206698198145      1.3412007887829887
   188   1      25.811737958701965      14.154658924433358    0.088677687969971011
   189   1      27.303792114204239      15.797885445468262      1.4381692350667903
   190   1      25.840137413884165      16.986801446912384    0.040795550933319186
   191   1      27.219070481335638      18.806604641035818      1.1963653303787736
   192   1      24.403293233917807      18.659040564812333      27.372337533942641
   193   1      27.327898757789065      21.388381235608485      1.4282293327085422
   194   1      25.854986312101573      22.943441039769588      28.401560516106301
   195   1      27.196833809955582      24.658100376765631      1.2463996519874065
   196   1      25.776977091398891      25.814534738019795      28.454968842823703
   197   1      27.326211227610202      27.307696933919626      1.0884438680943953
   198   1      28.651278044198008      28.542943308935271      2.7899326104714297
   199   1      1.3777740959415048       1.440856881348157      4.3145431068045701
   200   1    0.092696541593079773      2.7337822255073188      2.7191832235410982
   201   1      1.6706216134731007      4.2519478652150493      4.2583973995288149
   202   1    0.074286518692918496       5.665905047286266      2.9890754464126075
   203   1       1.603422883556106       7.043556833976619      4.2388618426795599
   204   1    0.086482804338027908      8.5756280449288695      2.8648492708722628
   205   1      1.5179619353211031      10.033470270154178      4.5490238532918976
   206   1    0.098701286382562051        11.4795630517829       3.027173892667816
   207   1      1.6289864913876404      12.822450776674723      4.5414683791660462
   208   1     0.16157608286680558      14.370256371561238      3.1226858005900042
   209   1      1.3180047789914189      15.872682500298355      4.2956594045562984
   210   1      28.522001254748162      17.508523188467198      2.7812886717904246
   211   1      1.3700146075923867      18.560812748399936      4.2160992509438824
   212   1    0.031588882708753478      19.955434702883803      2.8173305649604341
   213   1      1.3053402510702221       21.60183141575428      4.2946940769037747
   214   1    0.054297625637220223      23.056175061369824      2.7249572365040078
   215   1      3.0013359380033298      25.769527937354237      2.7120619065796743
   216   1     0.25835196253346043      25.789161893896079      2.7602052577605365
   217   1      1.4659580215820613      27.098984300041131      4.3130736921981585
   218   1      2.9028721746418968      28.694755395913266      2.9508888837788292
   219   1       4.203038952162343      1.4319672693726959      4.4448849811822804
   220   1      2.9661748035933213      2.7546889184349088      2.8476753814906144
   221   1      4.3360455249996246      4.2021970859741735      4.2228633308771224
   222   1      3.0204536232323718      5.6713399804872848      2.8429919810802522
   223   1      4.3701005546166831      7.2870255879686754      4.3459222473187307
   224   1      2.8044711659761119      8.5553821284360705      2.8268167091261929
   225   1      4.2881428380862614      9.9772825175294191      4.4775863109742886
   226   1      2.7536877555993895      11.474259867798157      2.9807998593926346
   227   1      4.2939944382380517      12.960948700609645      4.3126491942696257
   228   1      2.8440877672979816      14.299942683186998      2.9962317868411277
   229   1      4.3557299864065788      15.712154383191123      4.3101297324611156
   230   1      2.9107147174688031      17.052235727127648      2.7717140333504173
   231   1      4.1510277637811344      18.520505976349536      4.1734937409103905
   232   1      2.7768017622010683        20.1096310865017      3.0227590356078848
   233   1        4.52121905731852      21.471062311273439      4.3931014811774984
   234   1      1.3458739658955332      24.301331370159158       4.549568668850994
   235   1      4.3178944132920574      24.267259529371835      4.3869831189815578
   236   1      1.4901024761458317      27.464155692558183      1.3240382566928139
   237   1       4.344736761374274      27.353629584049795      4.3428211547270159
   238   1      5.6490350611768037      28.683194291755015      2.7029494559968263
   239   1      7.3188003643475765       1.461970046737646      4.4316754077454874
   240   1      5.8727887629296172       2.700740963814531      2.7856776614315324
   241   1      7.2358273930913226      4.3550320592914424      4.4608267746711343
   242   1      5.7755110678822215      5.6778804673628693      2.8374644735529033
   243   1      7.2143280400343137      7.2497578453249858      4.4113975878106393
   244   1       5.713772303540094      8.7050442471986642      2.9249782075256952
   245   1      7.2362800809541579      9.7954357778078869       4.548146107621533
   246   1      5.6982342737737444      11.410803611929495       3.129222318698258
   247   1      7.1409014718850248      12.930547600516064      4.3466833046824975
   248   1      5.7893160248493087      14.335970359709812      2.9589022181830269
   249   1      7.1959805416644933       15.57785648685244      4.3422802424277585
   250   1      5.8161584926441057      17.347759744390938      3.0777867525988691
   251   1      7.2874462092651431      18.766802568509469      4.3707121278069643
   252   1      5.7727173997472185      20.251259505244189      2.7987793665631204
   253   1      7.1333672670304935      21.400541358552776      4.3555606099435762
   254   1      5.8150490351517146      22.750303383309284      2.7106833428691384
   255   1       7.016546321931612      24.097400485503293       4.189703498453671
   256   1      5.4693093169290137      25.806496921857629      2.9084034843406714
   257   1      6.9014079135613002      27.137584112325793      4.3960197826485121
   258   1      8.4595664782027686      28.443859514723968      2.8309814729524514
   259   1      9.7870726566385837      1.3194423316163248      4.2405426550444867
   260   1       8.687429097800706       2.893020161606386      2.9274355677948267
   261   1      10.052809089592117       4.163390806950563      4.4102828286823081
   262   1      8.7368491973506401      5.7063639726015092       3.147793912951196
   263   1      10.078714174380234       7.228679790490335      4.5003974210314608
   264   1      8.7508921090708842      8.5479468645126655      2.8810633751307466
   265   1      10.072901909289826      10.111122031888934      4.1323546275907761
   266   1      8.4407313782118401      11.468882845028102      3.1029105372587202
   267   1      10.086424319810378      13.052791166874576      4.3871785943403445
   268   1      8.7062465600727439      14.301375101137308      2.9535426965374514
   269   1      10.161696650776257      15.795360294320131      4.5027279243025893
   270   1        8.65000978120454      17.152648712112651      2.9453040880453361
   271   1      9.9914730278798523      18.832378038209576      4.1915138040840842
   272   1      8.6204537210953198      19.948845089697539      2.7132532249511292
   273   1      9.9166316961786283      21.163422592988603      4.1387280633574557
   274   1      8.5032482419319315      22.854805350545877      2.7884591018056977
   275   1       9.948690690705936      24.269880565341271      4.3440514397133052
   276   1      10.242271926885765      27.257221859051878      4.4924325627736188
   277   1      9.8980203662855448      1.5885272000011914      1.4469228643988798
   278   1      12.871538789250163      1.2538506793593922      4.2428694130215527
   279   1      12.810146256411764      4.3229863985922172       4.479166565971739
   280   1      11.511199320023461      5.6627350349347489      2.8200769044605516
   281   1      12.853827000195624      7.1882741068219014      4.5093692876160629
   282   1      11.622100786145776      8.5705073513608117      3.0295695945429628
   283   1      13.118256423266748      10.166971085831948      4.0533515655781338
   284   1         11.699136364963       11.64669184385494      3.2022611538142307
   285   1      13.152898184871686       13.05333814858537      4.2402020885169458
   286   1       11.41871669944236      14.308811212644699      3.0205296096757626
   287   1      12.952020100550037      15.794262148997806      4.1628866934569819
   288   1      11.459914159375451      17.328928574284404      2.8950658454026357
   289   1      12.999493355767921      18.620662865315918      4.4092321206041074
   290   1      11.633478535124631      20.073253723636611      2.5857193237941489
   291   1      12.859496859225738      21.486745182326079      4.3292045611799326
   292   1      11.447741312086618      22.930966736660348      2.8539051959364983
   293   1      12.821127379689802      24.183583292941719      4.2318750601296706
   294   1      11.384789022715307      25.834075140507391      3.0884878045736186
   295   1      13.023097745061774      27.346147737987057      4.2169487132428198
   296   1      14.517215888423769      28.672059375350461      2.8581434757482835
   297   1      15.772966112457317      1.4454979051231371      4.0804256790870896
   298   1      14.252601401692942      2.9854705565264297      2.7917140542827381
   299   1      15.844219798408005      4.3310580356826218      4.2594123238068073
   300   1      14.451803489492022      5.8104181489082807      2.8855285066327987
   301   1      15.955084137325873      7.1539148966849666      4.3636461097574273
   302   1      14.601120509879891      8.7254732267708697      3.0510450244061329
   303   1       15.98241402491502      10.250874045753147      4.4730054967219433
   304   1      14.650152051055111       11.40488907384252      2.8694109695475376
   305   1      15.822297889245975      12.834994268474537      4.3247541244347669
   306   1      14.641785445375241      14.388589365771358       2.936617859568702
   307   1      15.935513219168159      15.882424955694576      4.2781529726560947
   308   1      14.660182596719306      17.159723930437817        2.90451768189704
   309   1      15.972172677947423      18.745579723203548      4.1549480741870548
   310   1      14.321533500910743      20.222336099466091      2.7285044176238906
   311   1       16.03940427305951      21.427598989720977      4.2993079784867199
   312   1      14.386334899344266      22.896221143994218      2.7874655818403062
   313   1      15.919582217016403      24.159047223603029      4.1858589205203343
   314   1      12.842337731237363      27.219517224857022       1.693997729107241
   315   1       15.81565344730928      27.443567272301795      4.3282519429184871
   316   1      17.155078025482684      28.649476647337099       2.614709022839973
   317   1      20.173349931998757      2.6927150368409802       5.606325256312509
   318   1       14.21396742408036      28.629210430478114     0.16163613606158816
   319   1      16.983365429365122      3.0504282822817657      5.8092260442577848
   320   1      18.650096387362723      4.2881347001920487      1.7092936946312198
   321   1      18.767262342045449      7.2693360957494288      4.3103015681154773
   322   1      17.442553890914702      8.5525625889733572      2.7660381939313057
   323   1      18.701829408865898      10.234338700470255      4.2601262046610078
   324   1      17.072296936465445      11.424151443530782      2.6812510046391265
   325   1      18.766576162258328      12.962034605916022      4.2066647751882238
   326   1      17.251010655365643      14.354814235823861      2.9820177178573708
   327   1      18.815160727909891      15.752797085841465      4.2674693886622315
   328   1      17.186552726997107      17.341585138375908      2.7594543761652179
   329   1      18.877029788156289      19.028551444803437      4.2688132746658702
   330   1      17.416869571503938      20.020650975734512      2.6891461071720184
   331   1      18.827030908532418      21.659314822904804      4.2205766108332172
   332   1      17.096820467651963      22.740097396547299      2.7988187219746701
   333   1      18.763951639993593      24.318713569337955      4.2718504952380254
   334   1      17.221642062355798      25.919613910592723      2.8918263597747607
   335   1      18.609946620979347      27.249969569446328      4.3887781322123169
   336   1      19.928890283756875     0.10004239285193553      2.8717164913120983
   337   1      21.477841878722547       1.578053747677246      4.0620958986458815
   338   1      20.197920412528045      2.8747407040502293      2.7842823526259726
   339   1       21.58420046071631      4.1501529341741543      4.3358450992237856
   340   1      20.141305310648804      5.7929472500155184       3.082231045729622
   341   1      21.524851843875926      7.4083208271206331      4.3638728920835552
   342   1      20.017406850022198      8.8458218915120739      2.7476362613209275
   343   1      21.578639841726574      10.055055555045636      4.3306176625541779
   344   1      20.144809010266776       11.35501159841462      2.7170973527827766
   345   1      21.607195735720886       12.77188921005436      4.1779551517493223
   346   1      20.254785405170448      14.281825205761796      3.1922711639338908
   347   1      21.731148437498081      15.825947642552535      4.3453842717462852
   348   1      20.170775467952787      17.346609220380145      2.8117068694182086
   349   1      21.662286449433143       18.56986076564856      4.3167357621934883
   350   1      20.259900124574941      20.278388385764686      2.7095678732308199
   351   1      21.594740282837243      21.750972143411193      4.0213996068527429
   352   1      19.941284961359276      23.111180019645079      2.8237834271371307
   353   1      21.540578738422727       24.38401194571329      4.1016318764188568
   354   1      20.019728671210988        25.8684874180341      2.8797936116335316
   355   1      21.509838455348198      27.430923183628362      4.3271569223000785
   356   1       23.08579422891081      28.689773131295119       2.988541225465887
   357   1      24.473533649500229      1.4576016019517619      4.2675271395481715
   358   1      22.980063784559999      2.9707260147514938      2.6196627457633217
   359   1      24.619219193436411      4.1411998244791137      4.3094893488051405