dump/Fe_1050_20/steps_11 (written by ASE) 

1980 	 atoms 
1  atom types
0.0      28.699999999999999  xlo xhi
0.0      28.699999999999999  ylo yhi
0.0      28.699999999999999  zlo zhi


Atoms 

     1   1    0.022551470699503494       28.63737316200886      28.496366800565717
     2   1      1.4788254703157229      1.3650998475936384       1.360839982441906
     3   1      28.677732546115436      2.8252582508923871      28.667100606130695
     4   1      1.4614366635962717      4.2703052689314154      1.5659502537596499
     5   1    0.044047491319135886      5.5829937078223146      28.636897787680372
     6   1       1.446474107709288      7.1258578958217065      1.2624634166870357
     7   1       28.63467927427601      8.3309390653475077    0.017149499194522369
     8   1      1.3400618856369315      10.091540469713344      1.4148952744133001
     9   1    0.067880513341938328      11.669496588596139      28.652982094319899
    10   1      1.5440369980716484      12.977060673141532      1.5553907229182764
    11   1      28.615240434186891      14.089670562903811      28.672400780822077
    12   1      1.2302530319133209      15.732223994785974      1.4052393277167325
    13   1      28.604955342056016      17.227979826912108      28.581231830895192
    14   1       1.467612559081217      18.918958634407616      1.3681799063487912
    15   1      28.614762885122264      20.007609208989138      28.689840386844484
    16   1       1.408504579733721      21.540203084294269      1.5377468499400617
    17   1      28.600462741717521      23.116460333182353    0.088843301630640747
    18   1      1.4789017006217049      24.472856062042041      1.6435072398954713
    19   1      28.644845873577481      25.665093628415551     0.22236298606677543
    20   1      2.9471096204457297      28.692766092964437     0.13916047715040353
    21   1      4.1945917603319822       1.354259247818038      1.6183911397653219
    22   1      3.0161993639738096      2.6788234654982932     0.14629524260818685
    23   1      4.4271484575866431      4.2504886706371376      1.5739862222108045
    24   1      2.8517506794326093      5.4985381509524602    0.080376279354084118
    25   1      4.2546929246160392      7.1320661188490035      1.3701194395408158
    26   1      2.8667438317736726      8.5544960615569092      28.608975194408007
    27   1      4.3897847749899324      10.176151008954216      1.3188459742931837
    28   1      2.9550694731449787      11.473337960838535     0.15042803477679167
    29   1      4.2820964492312807      13.061276721575542      1.3496250219785917
    30   1      2.9063242627727774      14.384977301421095   0.0076064174836005883
    31   1      4.0941468852041645      15.704838451431113      1.4352153201796103
    32   1      2.8921645742551618       17.28089423865595     0.29903498727850181
    33   1      4.4215043224377384      18.584659345362883      1.6401137047085039
    34   1      2.9260492027426475      20.198526159236181     0.06715430875777878
    35   1      4.2256782809301301      21.563522133518457      1.4923570881106565
    36   1      2.8686588593859486      22.823092154948426    0.051227072449285163
    37   1      4.3397770456045102      24.405644753073517      1.5887595615209091
    38   1      2.9391723970721406      25.642291423274489      28.686712344009301
    39   1      4.1170259068904747      27.147178954249316      1.5056762823808623
    40   1      5.4453133552278299    0.010465326097551065     0.32742842881061818
    41   1      7.1593369745101487      1.2247461909049449      1.3667952315279632
    42   1      5.7400035924293684      2.7571772433110255     0.05405432312824128
    43   1      7.1116685382554508      4.1998872649422356      1.4213762494696986
    44   1      5.7175468839088595      5.5337057463114903    0.050569707418480971
    45   1      7.0866265343889285      7.0718106271055978      1.3517335812728346
    46   1      5.6641843430447203      8.7672532742187474      28.635793320574482
    47   1      7.0077452610522748      10.183999705428713      1.3977845159262861
    48   1      5.6466417113879439      11.643000986422852       28.63189466283335
    49   1      6.9567257476466278      12.924893042815906      1.4920178380299602
    50   1      5.8855305312745108      14.381993741724717      28.692920901412879
    51   1      7.1728679032252582      15.604257025790323      1.3687201383810368
    52   1      5.6949244334958715      17.094591146054817     0.18422984731762435
    53   1      7.3259367091500502      18.515595237111068      1.3412219511286918
    54   1      7.0903544384405466       21.30354941505157      1.4257939486805642
    55   1      5.6446968166678131      23.104266917311111    0.060344640851019524
    56   1      7.1751134081329448       24.49108195715171      1.6125114042106459
    57   1       5.730476997092028      25.767142135605166     0.07231990673037661
    58   1      7.0964467259442214      27.101800013298536      1.6084248570154154
    59   1      8.6706168548443099      28.410864546824389    0.099981936722679049
    60   1      11.497368926782288      2.9632861068935417      2.8547637494026619
    61   1      8.5017795904386038      2.8453138979673231      28.628857597863092
    62   1      10.010241210002905      4.3991131890138711      1.4506706323437477
    63   1      8.6430028758278485      5.7841554830512987    0.019597484683015413
    64   1      10.107421619692936      7.1972983936044441      1.3015440092531545
    65   1      8.4656947297444329        8.63245532818976     0.04838251724004284
    66   1      9.9984626138510766      10.051100208408494      1.2473123855406363
    67   1      8.4249782246565008       11.50665595597768      28.681358706979399
    68   1       10.07849777412037      12.992672482016395      1.4603670896799024
    69   1       8.586215893724237      14.288587601108359    0.054202994039246659
    70   1      10.262206775228483        15.4267294630032      1.1611557300121618
    71   1      8.7940344889586992      17.114770246665454    0.092473632763449151
    72   1      9.9673671111647817      18.462360719308791      1.6129198547574104
    73   1      8.8086783132632398      20.079066629164849     0.16798941494424746
    74   1      10.275221733811216       21.25401545125364      1.5511212106063237
    75   1      8.5223865880874961      22.749330183052042     0.02214728837120673
    76   1      9.9743150311607032      24.159487393017802      1.4975645897315877
    77   1       8.851276638969173       25.67956084824046      28.678253977665285
    78   1      9.9616266307171042      27.103814990540339      1.6319925141889831
    79   1      11.484504138532682      28.557849303525021    0.070904513990762918
    80   1      12.872260496586016      1.4470058050926113      1.4859404467650517
    81   1      11.487647578786026      2.7822698402006147    0.055046766789757812
    82   1      12.814692837874293      4.2377778810891771      1.5995422608954524
    83   1      11.281548362999972      5.6544794702958541   0.0064644916715451512
    84   1       13.06883726324036      7.1551418573223868      1.4141508266334526
    85   1      11.398382074063827      8.6694558976651273   0.0062447429571420802
    86   1      13.042527040263517       10.08838862255017      1.3000055142065077
    87   1      11.604723670164148      11.527110043252247    0.036867557563812103
    88   1      13.134024702991239      12.784074880710843      1.6172218065620896
    89   1      11.547469578815548      14.038682224465163      28.548062056503372
    90   1      13.030096464496062      15.409760749960652      1.3057079062187182
    91   1      11.631905881569342      17.170525639494858      28.602752819356756
    92   1      13.013349305459091      18.624603783200254      1.4708615940436622
    93   1      11.550918651318357      19.818658669734962    0.076059539697985304
    94   1      12.969497608324454      21.532277131271258      1.4760465256601139
    95   1      11.387840808621577      22.754808909836427    0.092435529012357256
    96   1      12.883407126703501      24.236166046780671      1.5970573423267993
    97   1      11.355383795583739      25.863033152155026     0.14061055666098818
    98   1      12.823041735410737      27.193314077713541      1.7252376981435522
    99   1      14.223106595271579      28.587993198149196      28.593610279654513
   100   1      15.946534917128245      1.2992359066922181      1.3180839676174743
   101   1      14.268478652350858      2.7416511077221224    0.074750950731913582
   102   1      15.769137125213215      4.1586162699492437      1.2747613270340248
   103   1      14.100084512665171      5.8082102641506745      28.536477181560485
   104   1      15.578422852454386      7.1458690233081512      1.5508066457003442
   105   1      14.311268803402189      8.5380647717677398      28.600066528315455
   106   1      15.754320853937083      10.048233002795817      1.2890877647264345
   107   1      14.484607108943788      11.588099706760447      28.661778084239234
   108   1      15.872872328185966      12.666615526923177      1.3873490301782787
   109   1      14.389091302593949      14.389786540029403      28.602823212928854
   110   1      16.018346848715826      15.655113241671925      1.3193313772128012
   111   1      14.523959609459245      16.992367496778026      28.679929947137531
   112   1      15.803163172880963      18.423528785295002      1.5723372381485989
   113   1      15.783276792576531      21.345150426572175       1.504764128417285
   114   1      14.339976469900908      22.898028374521981     0.16044630462218928
   115   1      15.558258877667036      24.364610261182445      1.6658013524031159
   116   1      14.221074455510106      26.045103076648765     0.22826538998014029
   117   1      15.830077269845487      27.464168652158005      1.5188736126432789
   118   1      17.168121098909324    0.082142605309879407      28.442561102402397
   119   1      18.937705883054925      1.6032903968822778      1.4500153480507252
   120   1       17.28250552154914      2.7542969372494333      28.466006493764269
   121   1      18.593087247587597      4.1541990274798888      1.2190188326332656
   122   1      17.086204978996605      5.8577529877478902     0.19510113560428413
   123   1      18.768810562892618      7.2827397610310252      1.3956871183277133
   124   1      17.209436979098705      8.3524254197325387    0.066133403581807207
   125   1      18.926082081714622      10.020565101940619      1.4767817460242196
   126   1      17.334535758747045      11.429678516653832      28.600173062280522
   127   1      18.875621297161835      12.780844160285481      1.4513506266871663
   128   1      17.359928444495313      14.093958139902993    0.030306606388569333
   129   1      18.691230406466637       15.65108956806923      1.3824560373951618
   130   1      17.355103844746427      17.173189819040005   0.0086813940101592418
   131   1      18.628930678131063      18.442776454509939      1.7240938135511106
   132   1      17.399916341605049      19.888470111234597     0.23143464813915676
   133   1      18.718746584480677      21.288556165429746      1.4899086715981402
   134   1      17.103622789144474      22.832093910178749     0.16480011139803985
   135   1      18.689811052803485      24.424136777979172      1.6558311600961138
   136   1      17.108487221677169      25.599554243382837     0.21060504956896015
   137   1      18.575345606479775      27.360887511820962      1.4042512557244098
   138   1      20.130637411610042    0.047294472533782946      28.629856541596386
   139   1      21.491529401941342      1.4302317971600342      1.4530194237949663
   140   1      20.310784427775406      3.0775726452672436      28.615236172107405
   141   1      21.663620748256861      4.4711759814834835      1.4534260405466295
   142   1      20.163771781320822      5.6911519133581248    0.068723914477709369
   143   1      21.534750173578555      7.2334281090235777      1.4059026909318963
   144   1      20.230717104827121      8.5645358865155465      28.633396825862054
   145   1      21.559780317181303      10.003201434109506      1.3640217948126518
   146   1      20.176754742162963       11.39764984039649      28.509570656044762
   147   1       21.52855499800231      12.893599928604361      1.4166245119105492
   148   1      20.133723559944169      14.496358078361876    0.053450667461845465
   149   1      21.532209204656034      15.787278321955434      1.4529837379802524
   150   1      20.008893744082439      17.324026551019109     0.04578945410714836
   151   1      21.294541423099215      18.551869305667147      1.5606526768459603
   152   1      20.201389637934216      19.812580842261408      28.647786590653418
   153   1      21.518927532801651      21.335989266013499      1.5130341302629409
   154   1      19.877336957983616      22.900493314822736     0.30344861544916651
   155   1      21.457347832876199      24.224089208143418      1.5550253703787913
   156   1      20.166766875939437      25.957474206371668     0.22844024382067118
   157   1      21.511521695738143      27.357376222901724      1.3910522345389162
   158   1      22.925242993069133     0.15917555401985034    0.048854018889369515
   159   1      24.254284656688835      1.3169558413477493      1.4184813476482308
   160   1      23.126187108677506      2.8772819136932877     0.14977686412651103
   161   1      24.424132095210627      4.4498840967639239      1.3173627215584469
   162   1      23.007972937791564       5.933672208322724      28.568982094019805
   163   1      24.652906286418894      7.3400338464475032      1.4016924614190778
   164   1      23.051228262760539      8.5514173212813507      28.587255659111609
   165   1      24.455528999137023      10.124063152988176      1.5315097983123325
   166   1      23.117936051016681      11.304983007544152      28.617330485562064
   167   1      24.513915857006165      12.895574775242654      1.2863664603800664
   168   1      23.078620699752459      14.413020129845027      28.629566319563494
   169   1      24.420508079887171      15.872072874592636      1.3273363030464114
   170   1      23.087995368045529       17.15504724033039    0.048103787030902373
   171   1      24.177815099331692      18.751633721781761      1.5204427557094831
   172   1      23.009627246822085      19.936483609486945      28.679263154386945
   173   1        24.3633368940331      21.343764419920316      1.2311243155155231
   174   1      22.984435234399214      22.889824408684355     0.11933461410728781
   175   1      24.251608283293269      24.320986695576174      1.3069762364538855
   176   1      22.980692376800768      25.925417455171338    0.091421457493186267
   177   1      24.376481650017798      27.264831387173423      1.4178357433360576
   178   1      25.725538456360315    0.057863925058611126      28.630104031438719
   179   1       27.18122147992808      1.4388202750773293      1.3916190873276706
   180   1      25.700722259731744      2.9179823320368579     0.21814423082882958
   181   1      27.144996296247587      4.1406689348930747      1.6170478640413308
   182   1      25.894154302043191      5.7201787256892267      28.678576426801399
   183   1      27.273601416965974      6.8265155470881114      1.4326126270913058
   184   1      24.426541615010795      10.136268126105817      27.301838714158059
   185   1      26.071701171223136       8.673756536983996      28.606296023490259
   186   1      26.147692901995551      11.390780856742715    0.062585060966023398
   187   1      27.323021409906772      13.008569833108393      1.4430935373459193
   188   1      25.766894367317704      14.478924478966348      28.571975990975872
   189   1      27.231221806729895      15.906495258259357      1.5381476913378591
   190   1      25.909817298066574      17.425091164348636     0.17579961490987447
   191   1      27.375125838825131      18.556934021978098      1.4625828116341963
   192   1      25.813922868203992      19.893160080759468      28.659299628588712
   193   1      27.232370874736805      21.545784209230177      1.3903070103239545
   194   1      25.663760167136147      22.922187659696306     0.21087348395775515
   195   1      27.021221467645596      24.438880982725184      1.5015274175469453
   196   1      25.798495218729769      25.833102598532289     0.03993219722431144
   197   1      27.125608363220689      27.265167863132838      1.4145704590596446
   198   1      28.651914634549257      28.657652078791877      2.6342930218305685
   199   1      1.3092166624093236      1.3925022521833166       4.258404056429268
   200   1       28.67352584895578      2.7670118836626103       2.929753443117932
   201   1      1.3925029896604539      4.2912058773602011      4.3232703646492077
   202   1     0.08652090108059883      5.5833978760879086      2.9979881530690684
   203   1      1.5812499722909943      7.1335361996172564      4.3787109098401436
   204   1       28.56639487122294       8.425062875703361      2.7395318095274201
   205   1      1.4713322737840606      10.100968685731088      4.0610428093346487
   206   1      28.676540830446015      11.613623253241608      2.9799421316561676
   207   1      1.6456709480090019      13.008442656302584       4.298607101606593
   208   1     0.11310602167268473      14.261120169672365      2.8096922990164441
   209   1      1.3322834323939465      15.849602151722539      4.3273836574492011
   210   1    0.057576830509561937      17.415002323822439       2.959148939146905
   211   1      1.4252550552366188      18.613153830428026      4.4021357973554487
   212   1      28.640639825570634      20.017811988540458      2.8476093743323654
   213   1      1.2566069841308738      21.533309421449772      4.3283155759011995
   214   1      28.633821588419355      23.165954816740047      2.7949380459409308
   215   1      1.3689907225226223      24.654573076796034      3.9818201345559414
   216   1      28.437908610901165      25.985129781682815      2.8654421547164226
   217   1      1.1664539801614759      27.334060477480481      4.2063298788573444
   218   1      2.6516015547778671    0.095330926748658923      2.8328464391842867
   219   1      4.1208755611821148      1.4572469151572243      4.3660699603836397
   220   1      2.8403097546758773      2.8471015377416178      2.8935808356761403
   221   1       3.862158262074125      4.3962220887112489      4.2987726329889338
   222   1      2.8068997809835992      5.8335105827448865      2.7699762224485642
   223   1      4.3252536200212335      7.0066020882194708      4.3058568656584084
   224   1       2.986162510959359      8.7230630384139367      2.8779581030298957
   225   1      4.3111303224414232      10.084506491220603      4.1859986515966146
   226   1      2.8747999044437926      11.653598891309937      2.9820965267410164
   227   1      4.3010266938419219      12.936575781775923      4.3277288876545894
   228   1      2.7319555700813791      14.579165877944511      2.9970975029306004
   229   1      4.2039543789550198      15.738398931581623      4.3371704770620205
   230   1      2.8037233133864339      17.395858952926243      2.8078729627407131
   231   1      4.4988846600557624      18.803621262820336      4.4485967180481625
   232   1      2.9388145114556381      20.064532087783856      3.0031449736427871
   233   1      4.2360307859790556      21.623060827587281      4.2819866907789512
   234   1      2.8596360117450561      22.876342601633684      2.7865356400717478
   235   1      4.3906498577022939      24.455421423515851      4.4490771837455299
   236   1       1.377077168147435       27.24259705687421      1.3905262690031133
   237   1       4.145038651226252       27.27187239551585      4.2762985533996041
   238   1      5.6458291538023007      28.667997140724939      3.0846816168858671
   239   1      7.3108971548388837      1.3636347563211417      4.2923634764106193
   240   1      5.8294252668468998      2.9268959493539914      2.8360523749681068
   241   1      7.0520965742396742      4.4498410060424982      4.3870835101054881
   242   1      5.7647930822969684      5.6313901681782186      2.8007920725743918
   243   1      7.1738722568137856      6.8764440733638503      4.2444790980894913
   244   1      5.6576262356550666       8.552932425106297      2.8134166901775637
   245   1      7.0919996702295052      10.318496811209251      4.1439945885699121
   246   1      5.5677996650711732      11.739125883468558      2.9951886065797471
   247   1      7.2197697154354854      13.015290778060182      4.3277851391412616
   248   1      5.6119305504387373      14.465857779219357      3.1461449369644581
   249   1      7.1533839953495191      15.672082272704904      4.3104461673141401
   250   1      5.7346844656718554      17.059782418816834       2.758458978098997
   251   1      7.2939462185175357      18.562976635729953      4.1878627370518506
   252   1      5.8230762409062091      19.977400051202959      3.0523894409267442
   253   1      7.3879500553553346      21.404867744448982      4.2675976083639862
   254   1      5.7691389106778956      22.887497913895498      2.8046990099201952
   255   1      7.3201630722915105      24.347742116741244      4.1490984050850317
   256   1       5.677527402388308      25.864382411410084      2.9905566012928619
   257   1      7.1673550063818832      27.399443564315245      4.4539974865901524
   258   1      8.6018215332377999      28.674495457987323       2.695753614433043
   259   1       10.04544046646839      1.3602568567294715      4.1511370294313261
   260   1      8.6482422014152558      3.0196227296207381      3.0879726140119352
   261   1      10.171791274333721      4.3401777712214136      4.1505702338396722
   262   1      8.6772064914543066      5.8655321106439224       2.834411691040192
   263   1      10.137572008305355      7.2343123207003082      4.1459473176644464
   264   1      8.6040444947786199      8.7530417791403021      2.9155531670170944
   265   1      9.8239617221060094      10.018100859206251      4.3355874033895825
   266   1      8.5095080466992634      11.409590325043187      2.7303593146670555
   267   1      10.137176868942744      13.073420233014133      4.3262674686870506
   268   1      8.7005241667572015      14.304404108666141      2.9025054574703493
   269   1      9.9488388019696057      15.790829235876082      4.3808691595689853
   270   1      8.5158629287092484      17.026827721050058      2.8515223981835875
   271   1      10.022765022574852      18.437013633727148      4.3208727769044648
   272   1      8.7234003340962065      19.821465949689635      2.8482154576909471
   273   1      10.256612645770334      21.527143877748909      4.3952963792016968
   274   1       8.595198456711163      22.544082174706158      2.8809617927834403
   275   1      10.014787446599231      24.166421361881135      4.2308323969261412
   276   1      9.8022422922131476      27.227752267927364      4.2206508298862682
   277   1      9.9821532867991394      1.5274023831814685      1.3351750763920121
   278   1      12.797815189950811      1.2804950253773209      4.2068181247925098
   279   1      12.979927934907222      4.3218951797308467      4.4168488219987703
   280   1      11.612722856707752      5.8643898965167409      2.8327680630441581
   281   1       12.87850796917599      7.2236344286040692      4.2445346614197312
   282   1      11.526337120074691      8.7995850123799197      2.8311112949005759
   283   1      12.593248927445535      10.013906301192705      4.4381330738683218
   284   1      11.313899706075203      11.508619816867451      2.7049131704842111
   285   1      12.917112992305618      12.628528908085004      4.1713948677343327
   286   1      11.649465609990328      14.224646060655745      2.8535486032941777
   287   1      12.892155554685473      15.868777353854743      4.3406045998159026
   288   1      11.446678885605179      16.965127903931862      2.6314985423809842
   289   1      12.964869316669303      18.435071401076787      4.2219158311621783
   290   1      11.583992657319042      19.868026869378237      2.8982694245713767
   291   1      12.830770522096394      21.257818246608547      4.3172874647205042
   292   1      11.489378083849934      22.864065610605081       2.944733540529572
   293   1      12.768472728197342      24.521093164566331      4.4613118010687671
   294   1      11.288290573611162      25.609069744532096      2.8640789577585122
   295   1      12.526362106345468      27.504540587570808      4.0923124812582481
   296   1      14.445251955938165    0.088329597260349377      2.8584687024055238
   297   1      15.858540319156825      1.4432937838171715      4.4577536857201547
   298   1      14.484217952319407      2.7903618702590962      3.0035045855904028
   299   1      15.860222757831362      4.4617493988458499      4.3987227673221101
   300   1      14.378348281081639      5.6969611954224231      2.7907019516978266
   301   1      15.871014341481482      7.1895733945576348      4.2557941078678061
   302   1      14.342549424589514      8.6088609508711595      2.8943274479175165
   303   1      16.087610579625068      9.9003570081594408      4.1689253426342097
   304   1      14.433917030345457      11.228656428847966      3.0396442467138227
   305   1      15.905029354595555      12.857694940752101      4.3683479424630267
   306   1      14.640581493907058      14.265383264456789      2.8127688202403522
   307   1      15.887820266024793      15.712614538472886      4.2744471498364502
   308   1      14.484756219665551       16.84196695259741      2.8436814640242694
   309   1      16.026918353738324      18.505253576514562      4.4657559143565688
   310   1      14.510861450577144      20.015473598043926      2.8190852633921168
   311   1       15.81039344350576      21.492700983042745      4.0950567451138333
   312   1      14.286784797893796      23.022893881533125      3.0518397888455993
   313   1      15.679642341989533      24.639924678625853       4.345961010546187
   314   1      14.261863470720529      25.989787118063809       2.953211961127467
   315   1      15.920497102808683      27.594469072068971      4.4207933279748781
   316   1      17.415226154425884     0.18006494055734967      2.9198706388547992
   317   1      18.737689573045373      1.9011587467974325       4.249007370026634
   318   1      17.206984415969444      2.9100434632205183      2.7201738386802159
   319   1      18.728379192760894      4.3559774497907817      4.2538144594074572
   320   1      17.239330969611551      5.6556751425248173      2.6483955496592904
   321   1      18.666756233867122      7.0925822833084657      4.2849181329782731
   322   1      17.360744674536019      8.6068597253747274      2.7345649791662141
   323   1      18.795110732241117      10.009825742683805      4.4477762940603487
   324   1      17.349509786737329      11.341566808931383      2.7813801375143044
   325   1      18.678188992176761      12.790526939684311      4.5079425739686023
   326   1      17.504616718591048      14.333159095013015      3.0046142275034842
   327   1      18.840361138690749      15.865123512936162      4.5270876392921364
   328   1      17.319425649997349      17.131565749920277      2.9777019894479202
   329   1      18.553340516676819      18.613456945930078      4.3681957864965897
   330   1      17.168134162844101      20.105267565234232      2.9175642865968472
   331   1      18.570619161183988      21.375940913458674      4.4496367275738402
   332   1      17.283784040049316      22.877021179140026      2.8258170024772533
   333   1      18.585105876122793      24.437594060440961      4.2968895291460072
   334   1      17.264473087889417      25.959304064933015       2.895230461044088
   335   1      18.780878652807846      27.238918223479455      4.3418528483585774
   336   1      20.223846951784708   0.0062598798805312897      2.7731693780774318
   337   1      21.389391777883947      1.5127414433124373      4.3403268483264421
   338   1      20.148114341586094      3.0823132928114485      2.7895075273999295
   339   1      21.514831923171528      4.3110269738326883      4.2823135110948236
   340   1      20.029763086554176      5.5745969903628367      2.7235360198990395
   341   1      21.650884822434072      7.1557769341806399      4.1824421166107166
   342   1      20.354112897601318      8.5592137359729001      2.8982286474644323
   343   1      21.679075745957658      10.026161048504571      4.4391861372760806
   344   1      20.249173088216057      11.473016367821931      2.8938082402857979
   345   1      21.580312061344969      12.520539332219739       4.391492080998737
   346   1       20.26625866308158      14.268319601621663      2.9019647355529452
   347   1      21.615698961297444       15.74493125700225      4.3659739570276397
   348   1      19.952422543930076      17.195755927139395      2.8959245586193525
   349   1      21.840924434062906      18.579059291110799       4.484869103361814
   350   1      20.022132024762588      19.884461451097007      3.0568306309109801
   351   1      21.523330183527666      21.284158532664282      4.3543779068484092
   352   1      19.919221840492671      22.831277179302859      2.9667500928431836
   353   1      21.687025943339687      24.370735055490684      4.3357091482557912
   354   1      20.084514810408091      25.910572836363837      2.8929531505591379
   355   1      21.550658504037052      27.163207171134882      4.2641625822613607
   356   1      22.919432285257024    0.088348894807711811      3.1096753843117617
   357   1      24.264639197135541      1.4293822009063444      4.4420457196379202
   358   1      23.037702982502019      2.9704075688249798       2.676938033606211
   359   1      24.387239825599583      4.3293843078521377       4.340948140266315