dump/Fe_1050_20/steps_1 (written by ASE) 

1980 	 atoms 
1  atom types
0.0      28.699999999999999  xlo xhi
0.0      28.699999999999999  ylo yhi
0.0      28.699999999999999  zlo zhi


Atoms 

     1   1       28.63041830362312      28.641623963834945      28.647263850934468
     2   1      1.4166800010313627      1.4063039262914343      1.4169439622220357
     3   1     0.11194370651429789      2.7888052251080602      28.668315501452913
     4   1      1.2653761447592049      4.2229234527051629      1.5123005203283344
     5   1      28.686062151010137      5.6684448467777546    0.075420315505186963
     6   1      1.6345958989053895      7.0279799286213684      1.4963341721380738
     7   1     0.03411200360458453      8.2049740467081236      28.622168102160092
     8   1      1.5431821539303205      9.7084355103561837      1.4466024854877668
     9   1  0.00028979758017228782      11.456820956051626    0.087055257792940099
    10   1      1.5130941262018949      12.849709628054832       1.357801823667683
    11   1     0.11674386518923524      14.257206418370618        28.6573421821431
    12   1      1.5432368017415246      15.702821703089146      1.4676831895334772
    13   1      0.1822635847696488      17.316151000314338      28.624086396464097
    14   1      1.5065582787973424      18.467442854041749      1.4562186539449489
    15   1     0.18105927828463686      20.222926164971369     0.14237092664668591
    16   1        1.67865565138351      21.676965262224122      1.5363401410414552
    17   1   0.0039679078802478621      22.997898931425858   0.0091181432962002748
    18   1      1.2059511921946551      24.347565840892091      1.3442122320584184
    19   1     0.20384747843060369      25.837579929252097      28.605428036945149
    20   1      2.6496387769655727      28.549429796007221     0.20697690602124802
    21   1      4.2248999219595778      1.2933506140756097      1.4156314565206793
    22   1      3.1006191241357701      2.7429112247997867    0.041972433223668337
    23   1      4.3851978177398196      4.1789437153332303      1.5039515298931185
    24   1        2.97157695718606      5.6995101416076723     0.25064176081001505
    25   1      4.3663524187864668      7.1715664998298507      1.5068541803357209
    26   1      3.0542850502806567      8.7417429643370994      28.608627596645693
    27   1      4.1248229805689549      10.077608604140346      1.4979699357777585
    28   1      2.8544826417747475       11.38348537906322      28.628999426405588
    29   1      4.5741540505295903      12.889888139207198      1.3418632345834436
    30   1      2.8070976797341944      14.312579361406925    0.098357131897000766
    31   1      4.4288905582610942      15.522419655782665      1.2870465705304812
    32   1       3.012283698484548      17.133878605824382    0.085019584911549428
    33   1      4.4390361076028144      18.597844210390452      1.4659052247316138
    34   1      3.0917152626794246      20.103388038878972    0.099394280543242397
    35   1      4.5151250413171935      21.425555389063984      1.4823777693425875
    36   1      2.9806588265097571      22.919503419764826      28.626351992103924
    37   1      4.3883421906843676      24.697861945200867      1.4799181093944285
    38   1      2.6254071246223165      25.846186537595749      28.625084767611359
    39   1      4.3879838626011747      27.102435697108373      1.4100420948762813
    40   1      5.9439419969506035      28.499128813278091      28.619319610581588
    41   1      7.2975086817722756       1.266868260551439      1.2205345637697635
    42   1      5.7743320235480935      2.8719859500934035      0.0053105037026853
    43   1      7.0323131583608784      4.3526525345829388      1.5377091154414293
    44   1      5.9004980332259507      5.7929878210530186      28.651411948953669
    45   1      7.1888591900356804      7.2252331549004261      1.4966873809015047
    46   1       5.782677208340262      8.6273531497368978       28.63440986078415
    47   1      7.2985166084404041      10.259313373958062      1.3656092216052007
    48   1      5.5313417935375746      11.271321707010873      28.649794206028293
    49   1      7.2464588879844261      13.006192457947146      1.3240835079375652
    50   1      5.8240310187708788      14.349218223315175       28.57179432440785
    51   1      7.3121112459268014      15.922726767134913      1.5160152919195737
    52   1      5.7766830830388169      17.188077650226127      28.575542758721756
    53   1       7.145508586691264      18.491069001434937      1.2666490387844751
    54   1      7.0791410309616341      21.568883068721977      1.0981799680250441
    55   1      5.6185820198498337      23.231625072679115    0.028843758012362851
    56   1      7.1925814160761696      24.631537153213223      1.5522590178292142
    57   1      5.8563872992510726      25.853911897597666      28.546700728477781
    58   1        7.48499249203104      27.235474753629909      1.4591376206642175
    59   1      8.6125243096838489      28.556876537719376      28.534454559931319
    60   1      10.097237448886462      1.5249061026489934      1.4828509746889025
    61   1      8.6095741560981196      2.8477974775594013    0.075658391533840935
    62   1      9.9862863852348891      4.1757378317250513      1.3472858861448012
    63   1      8.7364421559667864      5.7424188544854111    0.032460604062896338
    64   1      10.174482214828629      6.9951896083792597      1.6110478380190085
    65   1      8.7056691857586159      8.6886884670385474    0.084465370335624373
    66   1      10.018629498916868      10.188914541891473      1.4961915371850061
    67   1      8.9285512061104235      11.578167461100096    0.071490776107566489
    68   1      10.086808994792483      13.031669923597264      1.3547487282284363
    69   1      8.5649366715417425      14.654926883787947      28.500460286206227
    70   1       10.09054347234709      15.824441672869312      1.4953215312772397
    71   1      8.5642325195616316      17.012850180748668       28.62166662879061
    72   1      10.163220539481728      18.668635854116335      1.2285549553105606
    73   1      8.6027181509554467      20.101816526968648      28.642413319836823
    74   1      10.084836711324876      21.395164913143862      1.1468378378990889
    75   1      8.6562984600362807      23.038040530797741      28.582120710922126
    76   1      9.9151966599519952      24.453215549440216      1.6782975531719453
    77   1      8.7167623442793545      25.725460508265275      28.602712810374548
    78   1      10.151009392715505      27.323641235966246      1.3800628297996693
    79   1      11.616004921611232      28.627399876769562    0.084541260131254542
    80   1      12.805063572097252      1.4993488060523401      1.4080932596316875
    81   1       11.48102469115665      2.7736960985888355      28.432518287299832
    82   1      12.972677797664714      4.1911504893502922      1.4517995292048915
    83   1      11.587205654618142      5.3927713742770003      28.586433316727256
    84   1      13.001847268695643      6.9848797324812839      1.3336050249523508
    85   1      11.373335486164716      8.7287257030409524      28.691089329795165
    86   1      12.778763341567752      10.094090461492883      1.3543207020807118
    87   1      11.372078722961142      11.465049757440458      28.482447479097903
    88   1      12.724395543332388      13.049511811456076      1.5122751331334598
    89   1      11.452764842698418       14.53901186969639    0.018757568866965352
    90   1      12.940060312649294      15.828793792438423      1.4580466136180925
    91   1      11.461194919023047      17.271559293007225      28.609869706156548
    92   1       12.94123871021575      18.643257263844216      1.4145636110823598
    93   1      11.478690886624316      19.982085339391634      28.576897760435006
    94   1      13.047705821358187      21.282398811648655      1.2650408588094033
    95   1       11.45291516934962      22.966111813126847    0.013556732359006661
    96   1      13.132120902252579      24.408923135606244       1.347015396781386
    97   1      11.368005498843035      25.816501223939895    0.063817425903766864
    98   1       13.18805086775291      27.348039997649824       1.757636283137924
    99   1      14.492815973913572    0.087289434265016938     0.26301328181955347
   100   1      15.879115525992676      1.6018029252334265      1.4491797720261945
   101   1      14.472482600485863      2.7796684982330708    0.026236920437952456
   102   1      16.024057812964543      4.0741548667658689      1.4293426557394238
   103   1       14.32571200484721      5.6164814852432601    0.024209088955763035
   104   1       16.01926864840398       7.316494513626286      1.5894342122098923
   105   1      14.719312162362753       8.693846934666837     0.31285125708124079
   106   1      15.690068836082819      10.141820748468042      1.6116879697532445
   107   1      14.347017606860147      11.670469334634049    0.077393932892016376
   108   1      15.720836793570575      12.936676880567951      1.5830576207360532
   109   1      14.252955261175353      14.251969052894854      28.699801777149371
   110   1      15.546545179992707      15.807530713593765      1.5805753193571932
   111   1      14.293819703971433      17.129793570662017      28.600876508382218
   112   1      15.645099857812834      18.668986074434144      1.3884701926767782
   113   1      15.825153357756278      21.550075978531986       1.320386212125312
   114   1      14.265151952655566      22.968635653629399      28.615268811388646
   115   1      15.707648157981694      24.322903918447686      1.4643507318783582
   116   1      14.261867875246242      25.990811439342199    0.063872508233464478
   117   1      15.798753313698899      27.430095969059426      1.5323655745444962
   118   1      17.460714410461751    0.013094520536492392    0.042843774505865954
   119   1      18.552685091355265      1.4303839689380646      1.5531864887287941
   120   1      17.129572305751399      2.6529062577084588      28.386403287970769
   121   1      18.643254330719564       4.239337340402705      1.4615169479497239
   122   1       17.35188210732607      5.6727767867210694    0.069593662538477305
   123   1      18.633924117841968      7.0940938677727532      1.5184517450830284
   124   1      17.270905804285441      8.8294987402705143     0.18964525860072842
   125   1      18.657394341311143      10.017270868825891      1.5042970508901241
   126   1      17.101440852449393      11.420188022382803     0.17305896805459048
   127   1      18.669745284188057      13.128005246305339      1.5983302851474253
   128   1      17.030314614414849      14.277261359392551     0.22577120310291993
   129   1      18.529628925611554      15.858281084583625      1.3274231778107495
   130   1      17.014667502250873      17.323093135703047      28.507364515301099
   131   1      18.533687632655781      18.643529758362359      1.3674851799088843
   132   1      17.227451509740277      20.088665814051314      28.652678203465989
   133   1      18.805708756785325      21.416075694897238      1.4120299290669212
   134   1       17.13914134494782      23.101143253677321      28.661873534754136
   135   1      18.670594246797062      24.484049820718791      1.3728245006812028
   136   1      17.120523070514569      25.971071180002284     0.25831384847514305
   137   1      18.812817231154614      27.188233559690996      1.5110900758017787
   138   1      20.042494812795034      28.489912765554852      28.678881069030396
   139   1      21.525471741922818      1.2796409642424116      1.3428836004491804
   140   1      20.108256039081521      2.8205900286343062     0.24399418666491773
   141   1      21.666559584070299      4.4839136798257577      1.5621768291899236
   142   1      20.150450289329299      5.6887975154949419     0.13100863356374928
   143   1      21.400986736603564      7.2074789816374931       1.505382057484234
   144   1      20.139220141926941       8.801685189884731     0.05255819550606023
   145   1      21.605598773330193      10.020750509745394      1.5411566155884653
   146   1       19.84638331172707      11.715210946926071     0.13478786514640423
   147   1      21.620739840683274      12.775329763902548      1.4307587846641008
   148   1      20.116531377847153      14.366904676195466     0.12189953856468494
   149   1      21.587034704982059      15.835257012500676      1.5273156935817276
   150   1      19.979724152196958      17.257990654333106     0.12979290756217099
   151   1      21.639493622247464      18.868030690796523      1.5511596271175434
   152   1      20.166899128920871      20.090760169459237    0.072262373350019865
   153   1      21.795141553984056       21.45312030628536      1.4432359431190545
   154   1      20.184799522673892      23.016222435518202      28.600176105019344
   155   1      21.766256749447823      24.384206069765348      1.1212974262252837
   156   1      20.211839423710593      25.629156141165311      28.513563642200083
   157   1      21.607180232178106      27.122650790632907      1.4864633463144985
   158   1      22.930302896108817      28.642744207147022      28.666365770949739
   159   1      24.572489839598038      1.5584605973270631      1.3980049650392301
   160   1      22.993912523106562      3.1009976578233096     0.10239152426861427
   161   1      24.374936894479521      4.5078033007725535      1.6299966801896064
   162   1      22.748261628017318      5.7339406668425479      28.661449262935225
   163   1      24.369173462849357      7.1062304136194827      1.3739676669785794
   164   1      22.841339165817374      8.4869133664989214    0.055564307705196832
   165   1      24.458944034377286      9.8570011592015678       1.293554323728404
   166   1      22.934202747239819      11.410288960609503      28.557861220264812
   167   1      24.432865952592262      12.922188070091208      1.3840357020487419
   168   1      22.804334525944586      14.335273865050796      28.602797136991828
   169   1      24.358633133452461      15.599514975145505      1.4006127941724915
   170   1      23.102603100840511      17.104762367239143      28.689847399809132
   171   1      24.553883201119991      18.596626509764263      1.3089506138769358
   172   1      23.094515031695799       20.09827676536635      28.625494647711989
   173   1      24.516658417611783      21.535696538630972      1.1387914114984496
   174   1      23.098281774463256      22.686902423053827      28.457701285698139
   175   1      24.295387245598782      24.272532474069507      1.2750065510457604
   176   1      22.986067773855083      25.833040779718853      28.444499103439782
   177   1      24.589418787945142      27.182372236345696      1.3837416341977926
   178   1      25.737481028896894    0.081893808616623084      28.510310990916004
   179   1      27.385639942800879      1.3748396216368519      1.3582850033135623
   180   1      25.748775037639657      2.9917569651684852      28.679295032228964
   181   1      27.339175371846785      4.2476714182426649      1.6023788694047527
   182   1      25.786705904951027       5.596101200615105     0.19343596418565315
   183   1      27.057823078767139      7.2450123363047396      1.3332887794696722
   184   1      24.257719180292259      9.9817215596434838      27.326382176623074
   185   1      27.315888695469063      10.071121209230048      1.3871849369620131
   186   1      25.642278801385501      11.602626071240278      28.542811186417389
   187   1      27.161471708844431      12.962205161748614      1.2673924104855809
   188   1      25.604405283666821      14.180706816656583      28.698477633735774
   189   1      27.525286495809606       15.96543029049834      1.1918486325110949
   190   1      25.957933773789271      17.207956205318169   0.0018826519140588975
   191   1      27.278644583217776      18.795719103930647      1.4885209729856452
   192   1       26.05698898768388      20.126332378447909      28.602986513663495
   193   1      27.388362683003251      21.562067529750014      1.4162850273282745
   194   1      25.874594902307681      23.105191659302189      28.639699994860933
   195   1      27.318294728275681      24.459238229376759      1.3675420228390169
   196   1      25.896027746751354      25.827919925375749      28.662831762275985
   197   1      27.269543841458514      27.190080836038103      1.4691010657006369
   198   1     0.18506207601002608      28.685674767450124      2.6294277432832827
   199   1      1.6051852263783859      1.3811477038387678      4.2845732634735114
   200   1     0.11939794751162967       2.714546013967527      2.8967540152166764
   201   1      1.4031774012365632      4.3046997776263858      4.3382089414438401
   202   1       28.62260578465937      5.7960546323565092      2.7081212572802658
   203   1      1.4389429898144745      7.2361358950395971      4.2187134185565096
   204   1      28.592327302167391      8.4885408434144747      2.7873099253233349
   205   1      1.6025195240298211      9.9510765725766568       4.389520584247375
   206   1    0.064599645587123514      11.346750228528004      2.7711112598016254
   207   1        1.51051975945626      12.866087874595751      4.0241992041309915
   208   1      28.653409029655652      14.392905410784518      2.7219023501527988
   209   1      1.4069216464600931      15.616233356387307      4.1852726674382792
   210   1     0.14552964025465501      17.270566572036024      2.9152969391482562
   211   1      1.1657245354611971      18.684931709176396      4.6078583335437653
   212   1    0.061313087660688895      19.952897925138185      2.7789409125885869
   213   1       1.541895407025528      21.535176654895618      4.2909454602622841
   214   1     0.02207450815636932      22.829057630356949      2.8664842841499638
   215   1      1.5494893539298022      24.460776450546213      4.4241872854937334
   216   1     0.03529010067255918      25.888858110581584      2.8872243503756749
   217   1      1.5745261840365192      27.256876228346059      4.5034179163366836
   218   1      2.7949797528808427      28.429407445023788      2.8883858937713009
   219   1      4.4701895510250678      1.4032397654682076      4.2339386602106508
   220   1      3.0013036286706929      2.6635375770231011      2.9410947719992371
   221   1      4.2920713742865741      4.3312500401466076      4.2405353724084076
   222   1      2.8615185539992578      5.5587005083600189      2.9033960156105665
   223   1      4.5405241669171383      7.1126750945261312       4.280064695271248
   224   1      2.9178738103371877      8.4434661449051944      2.9303671495185393
   225   1      4.3185348162769097       10.11466859702902      4.2585437448312318
   226   1      3.0439180886699502      11.579261311328201      2.7156313847371618
   227   1      4.2334231592869971      12.897922968313695      4.4680152136024072
   228   1      2.9147943569120338      14.231057083634433      2.7770333119885655
   229   1      4.2193887283825058      15.545190710072179      4.3738422090824498
   230   1        2.89508025942387      17.086339455222383      2.8155426789155964
   231   1      4.3518067696930629      18.572212276154584      4.4141706932330509
   232   1      2.9084859131774472      20.055039032329208      2.8106109540909969
   233   1      4.1689941127810295       21.36887758504972      4.4413712028123244
   234   1      2.8841223357425623      22.965681487890699      2.9590325592478361
   235   1      4.4552057093503832      24.486381389180654      4.4538636527957545
   236   1      2.8163340619656889      25.721527189451063      2.9378956404840748
   237   1      4.2938336647146187      27.291764283966124      4.0450477250479944
   238   1      5.7732760838636752      28.695624346547621      2.7082773731131051
   239   1      7.2578026749281728      1.3081337000192887      4.1931110966191643
   240   1      5.8026751199590629      2.6960990912385232      2.9177798590747246
   241   1      7.1305710223799075      4.2733238663011619      4.3751512646404676
   242   1      6.0174953471184507      5.6673376760958556       2.994216777382309
   243   1      7.0910232963294053      7.1990368230245441      4.3741161792563918
   244   1      5.8105090089008602      8.6797763951295686      2.8709558113871974
   245   1      7.1479732416493249      9.9874367278855019       4.383557487843361
   246   1      5.8120341980392913      11.395599556795213      2.7465284304970621
   247   1       7.016631581887748      12.964661896360445      4.4930250737794912
   248   1      5.8492311961660404      14.329054393458692      2.7738513297525502
   249   1      7.1151829313816171      15.686618393352271      4.3903158847472774
   250   1      5.7609715500893852      17.194087108529665        3.01997317686061
   251   1      7.0569619602998781      18.666458249088372      4.3940937062371219
   252   1      5.8575876050453841      20.074209082976814      2.7648591442461457
   253   1      7.2570474210861473       21.39577229982952      4.1973386694342798
   254   1      5.9233146147321136      23.047768368504702      2.7148267256564407
   255   1      7.6992688990892235      24.556243013920248      3.7899958897429356
   256   1      5.7134839830904891      25.778765225143388      3.1671195155752794
   257   1      7.2463264286040143      27.197347582805772      4.1750812607191818
   258   1      8.7473406392616564     0.10968222461019675      2.9843325458574137
   259   1      10.201293690713257      1.3883727269119968      4.2456942602771353
   260   1      8.8060711681687494      2.6353310713131699      2.8986409644371669
   261   1      9.9965943835606108      4.1772451778092989      4.4535631763541588
   262   1      8.4800301632092214      5.7384394134644374      2.8329922968985777
   263   1      10.085935091494648      6.9953020918671101      4.3904841952984821
   264   1      8.8025820629239764      8.5409832104921932      2.9276383659386083
   265   1      10.135761545753239      10.052087142087201      4.3580558756435721
   266   1      8.6849831368676362      11.561428574052407      2.9731193873767725
   267   1       10.14379891227702      12.864498188625502      4.3650182654907228
   268   1      8.5698153516759348      14.403104438271438      2.9026816295424864
   269   1      9.8407591158799139      15.882217897923313      4.3432108776679144
   270   1      8.6032344302686194      17.318949796024029      2.9211052211410213
   271   1      10.089520102938689      18.760021087473213      4.3407994108922372
   272   1      8.7115490279811549       19.94845835016773      2.7839588202394578
   273   1      10.147577952815492      21.656313364046905      4.4713781852342223
   274   1       8.540131137502982      22.638877834453716      2.6954729686464129
   275   1      10.009825885007679      24.282738847973956      4.0883465859686794
   276   1      10.078761993366852      26.989386658304582        4.41647492582785
   277   1      11.483841123306243      28.563322789663601      3.0380142849155067
   278   1      12.773442637880045      1.4069249114225264      4.3353656441009196
   279   1      12.779065561016715      4.1794701575887672      4.2907457126423916
   280   1      11.627907550545826      5.6343999576026604      2.7861644333031772
   281   1      12.776446820510738      6.9795991689930474      4.2754462305409575
   282   1      11.540815656311304      8.6078535093146851      2.6743473172510202
   283   1      12.660559213324207      10.077243375111353      4.3491103906154542
   284   1      11.393434484659764      11.495532635253792      2.9183633366879791
   285   1      12.881660109623571      12.988454074900922      4.1876573907626673
   286   1      11.334981613465667      14.456038728786977      2.9372199449871319
   287   1       12.99868504000457      15.748415101366886      4.2645318523355318
   288   1      11.499686266534356      17.147344941399229      2.8215278986581325
   289   1      12.948306683828525      18.646807237748657      4.3167874096661389
   290   1      11.536270655394169      20.077197839690346      2.7801237687586089
   291   1      12.892477559628839      21.609767158675741      4.1725675775697457
   292   1      11.545650561006623      22.945063406037907      2.5855210891305074
   293   1      13.026176056541823      24.318637153860838      4.1761767684428301
   294   1      11.658379536341453      25.790413261749247      2.7651120967376768
   295   1      12.999637807575583      27.330894559211099      4.2926263464581336
   296   1      14.357589804574882       0.267238870649044      2.8251013247238101
   297   1      15.912300671081866      1.3214664817522925      4.3714469265276188
   298   1      14.558700305290241      2.7616972886935516      3.0655799598858811
   299   1      15.967681627173901      4.2640802236990316      4.2924527229653684
   300   1      14.428613635886476      5.5625866673670004      2.8665503994182364
   301   1      15.564206928278001      7.1105620652248005      4.4293585252113186
   302   1      14.070190868372576      8.5514051038342487       2.808669501249494
   303   1       15.63468405033996      10.087887854036248      4.4719680870213523
   304   1      14.098206456878934      11.472713265893169      2.7922689555631797
   305   1       15.58639288695827      12.926110952082624       4.379690141252496
   306   1      14.175299123333964      14.334859194200465      2.8571366285130573
   307   1      15.851939262279826      15.923858020451267      4.4666946739404612
   308   1       14.31466259213577      17.281448904465741      3.0475325492425633
   309   1       15.85658928447987      18.577966498807164      4.2831130433969848
   310   1      14.584944126249798       19.97372152956012      3.0074908344593654
   311   1      15.928978117955715      21.439701035485037      4.2405026396639274
   312   1      14.301123968247651      22.895394421323573      2.7744592447593042
   313   1      15.917394812154695      24.321296229023364      4.2803621489391857
   314   1      14.584474474817332      25.867546216685497      3.0042031208154616
   315   1      15.810968864507965      27.586457259691642       4.459559771907883
   316   1      17.583728139694554      28.588441390222176      2.9704921493167973
   317   1      18.760344165558795      1.3860437676721289      4.4917198276787511
   318   1      17.346005556465364      2.8939969579428131      2.8350053696532092
   319   1      18.767759110707221      4.3357780054119974      4.3228054296803169
   320   1      17.147327284641822      5.6564312556317295      2.9382766935227065
   321   1      18.601122166679161      7.1380609359677951      4.1870144959158715
   322   1      17.143509643500995      8.7472677643600232      3.0741716725422084
   323   1      18.584614387392733      10.008070549211709      4.3556912234140608
   324   1      17.300272221717325      11.564674983801812      2.9021040874023485
   325   1      18.591725690013366      12.980757718281712      4.3944643226226399
   326   1      17.036697289242255      14.430553888029404        2.93150244597153
   327   1      18.469971116255241      15.841610325006606      4.2714005446527876
   328   1      17.136793514185999      17.398834628715491      2.8220314627724403
   329   1      18.745303167949142      18.671939450950774      4.2924583531763023
   330   1      17.246834820517257      20.183258436921673      2.6255387285064002
   331   1      18.681514281583471      21.521715365325182      4.1524391175474591
   332   1      17.116750971031603      22.947377107734756      2.7294781483883188
   333   1      18.796749313899955      24.242694347509349      4.2684819091187691
   334   1      17.206069473045343      25.857783269865877      2.9229488968214592
   335   1      19.001591273761878      26.908152799890591      4.1946759906816178
   336   1      20.084175143196397      28.687276253346614      2.9626435315152548
   337   1      21.676250890434133        1.20836473520219      4.1814467789130285
   338   1      19.941036468551292      2.8953945618529158      2.8551435860453225
   339   1      21.442537718148269      4.1644086019290647      4.1352730886165654
   340   1      20.099543413432563      5.6657886572398564      3.0654996737444122
   341   1      21.386655022362955      7.3535181169181651       4.327853399248526
   342   1      20.061604042811588      8.6565434936988286      2.8119228385724786
   343   1      21.396496067823801      10.069631969489365      4.4096076016403964
   344   1      20.091526052075281      11.304730240132381      2.8947107089990851
   345   1      21.575168890994238      12.832154746936247       4.274597215671462
   346   1      20.199114447944396       14.34577689227492      2.8323500970438538
   347   1      21.915584505408098      15.803917773175172      4.4529241933223256
   348   1      20.112336946065298      17.296695879301129      2.9028555707254804
   349   1      21.721528218380239      18.672669555391693      4.1529621161884949
   350   1      20.306604719306538       20.22388335091868      2.9844481861258818
   351   1      21.874907496006507      21.667293573039295      4.3105825294062772
   352   1      20.160026916776388      23.070799466456744      2.8405829833006804
   353   1      21.729666102758827      24.468927196183486      4.3403307982478037
   354   1      20.230661346847313      25.489512996624022      2.6320617343466095
   355   1      21.515128985086669      27.011611908954301      4.2318726704753438
   356   1      22.920676046692197      28.654453339019739      2.7397332319651464
   357   1      24.445578425147705      1.4999348149063969       4.110964769820697
   358   1      22.742016036219997      2.8045368808059612      2.8875514344279298
   359   1      24.389157026329645      4.3842747684532988      4.2296054845653064