dump/Fe_1050_20/steps_91 (written by ASE) 

1980 	 atoms 
1  atom types
0.0      28.699999999999999  xlo xhi
0.0      28.699999999999999  ylo yhi
0.0      28.699999999999999  zlo zhi


Atoms 

     1   1      28.686343396043227      28.650626002026115    0.026460454118966949
     2   1      1.2892718583422389      1.4374292534471809      1.3183985176058741
     3   1    0.066762624073840288       2.990946668930317    0.074843364583352889
     4   1      1.5361439312236242      4.4048599530179615      1.6047985863545586
     5   1    0.036940961889377198      5.7760106132951021     0.13775390153767814
     6   1      1.4509140622622809      7.2839215135874449      1.2903423042353903
     7   1      28.535959055851208      8.7492640098554766      28.522973203929013
     8   1      1.2760568434253845      10.109412748031851      1.3950574866234537
     9   1      28.579962545917116      11.591421631613887      28.691103636541655
    10   1      1.2670914536144335      13.036287346805246      1.3101290463456965
    11   1      28.495704663032502      14.394552769914021      28.496593278628072
    12   1      1.5719977532791991      16.145194091101601       1.352034496350621
    13   1      28.602295092961388      17.240854292369185      28.559601208454325
    14   1      1.2055988902939956      18.818141772072671      1.5823698111318201
    15   1    0.026393465235983755      20.115323812236866      28.644895825585195
    16   1      1.5133809454348484      21.353882554461009      1.3224948543896047
    17   1      28.669885364664196      22.743836107470294      28.578113456328992
    18   1      1.5455045819304036      24.341391587169429      1.4254203732440813
    19   1       28.63315714475981      25.643922750755479      28.643479695438586
    20   1      3.0328395024364294      28.682346406627744     0.15073540688169934
    21   1      4.3985672355522407      1.5945956733117885      1.3586410491542338
    22   1      2.7320196266162706       2.831021604955732    0.025998841554337543
    23   1      4.3035735817277452      4.2406258876751002      1.4651028472604475
    24   1      2.9269829593945444       5.674774840617153      28.638063774874539
    25   1       4.190184090209816      7.2893407541624553      1.2789116525213109
    26   1      2.5689356752596062      8.7163579767799266    0.047238663967334595
    27   1      4.1391649804205635      10.234566557860381      1.3864281809897414
    28   1      2.6086977931295912      11.823802815946474     0.10779530953176397
    29   1      4.2705360946388771      13.077623565516134      1.2964549178096949
    30   1      2.5507391720520469      14.646224225107018      28.333650003209161
    31   1      4.2370779732120578      15.773382271913537      1.2240930600027469
    32   1      2.8844486784806196      17.440572166907728      28.581614065199119
    33   1       4.546729943677092      18.683166489920854      1.2425081927572712
    34   1      2.9519079835885695      20.049993679673467      28.656584909700275
    35   1      2.9191973376747589      22.708218862784751      2.8822547833633139
    36   1      2.9228341133217799      23.033662208405733    0.029996187704512116
    37   1       4.452618139922131      24.404056765798355      1.4449377007482775
    38   1      2.9515973973591039      25.707157626164307         28.657216059764
    39   1      4.4166901621838726      27.273955403874247      1.4099902239108011
    40   1      5.8524116889543629      28.680774951431633      0.1066435850671156
    41   1      7.1901420001095371      1.3304170205274659      1.4628681620045434
    42   1      5.8807570449966056      2.8905092690424143      28.530719481445022
    43   1      7.2973148232576657      4.2613511345175699      1.4942445359737013
    44   1      5.8531720234420721      5.5520227280192982      28.629064315476398
    45   1      7.3881930877263029      7.1962817447768295      1.3252616710742242
    46   1      5.7263156445947034      8.9956499237159981      28.558707791826297
    47   1      7.2186754936220243      9.9045455878754574      1.4597773890223145
    48   1      5.6452821336425147      11.595976550677573      28.532916270609888
    49   1      7.0618984563315728      12.955663242318987      1.4186347242914623
    50   1       5.813724633618687      14.440988879105705    0.013069967952674238
    51   1      7.1267941487337669      15.650144232456924      1.3260272939312705
    52   1      5.8758953519667623      17.125325941542471    0.022145299824182979
    53   1      7.0435178747520713      18.673524227729629      1.3400184348478656
    54   1      6.9389380598041139      21.375509390264703      1.2911545061125236
    55   1      4.3483263116413706      21.451387753177031      1.3218680091857313
    56   1      7.1275990918586096      24.424818438872489      1.4304248350675723
    57   1      5.9339374537400023       26.04627557010425      28.669149901140631
    58   1      7.1889451303012413      27.094451440916259      1.4971404491103486
    59   1       8.455799550352264     0.21130843348961603      28.429865180413092
    60   1      11.444609050107294      2.7788885947418192       2.903688462424598
    61   1      8.5691547894969915      2.8924695361761366      28.577340072010006
    62   1      10.001521056106421      4.3124104776334615      1.4876121865216407
    63   1      8.9718723897209518      5.7211801900673249      28.570197483478612
    64   1      10.176765730020907      7.3555792887229083      1.4689550403397909
    65   1      8.8222485136595648      8.7507556002468441       28.61206068534749
    66   1      10.185353850960462      10.094405556798348      1.3451450817366093
    67   1      8.6303947672976626      11.347132116070018      28.694523506401765
    68   1      9.9259313433704541      12.898631057235709      1.4314942694465131
    69   1      8.5796128765692163      14.257102637468623     0.13238869130622097
    70   1      10.047279642818834      16.058336703003896      1.6595452201071561
    71   1      8.6490616808645786      17.034410954014373      28.669468705584965
    72   1      9.9846980081221712      18.705177746843532      1.4060616790509799
    73   1      6.9752088619066637      21.289374775006831      27.140414500874147
    74   1      10.020389533139612      21.440486737718011      1.4510179815988642
    75   1      8.4884354504711634      22.808411345639357      28.516452476784664
    76   1      8.5014878673195557      25.711577241928246    0.018156074820205956
    77   1       9.989563715220255      27.401916104736753      1.4718101252477598
    78   1      8.7059881850124068      25.803711128457977      2.8937346559215378
    79   1      12.716160292055468      1.1227542571404352       1.408910289563879
    80   1      11.697267869507037      2.9360645446121167      0.1872104224021881
    81   1      10.103874112830194      1.7026597805660701      27.309232369890555
    82   1      12.954200087300414      4.1353336578055417      1.7847106952170531
    83   1       11.54065101955945      5.4587573005987258     0.12606135959858883
    84   1      12.891466101318834      7.0837011928784648      1.5748828697995008
    85   1      11.733110628002548      8.7009642343102627      28.354280464207481
    86   1      13.146971950757868       10.20047637409405       1.255634650049114
    87   1      11.583654811931208      11.535025025199616    0.087102092252075672
    88   1      12.972560113573904      13.040898130157704      1.4723938118669826
    89   1      11.574071366537781      14.558811240270254     0.18139661428220957
    90   1      13.145250439746862      15.848268751098816      1.4597223193653799
    91   1      11.380853247600584      17.332519502975483      28.543582497917431
    92   1      13.115314857517024      18.549782294702766      1.3225437202136501
    93   1      13.059402349814325      21.492405793521804      1.5666485365343874
    94   1      14.266349003667404      23.108205855063204     0.11390211938531812
    95   1      9.9080953883222929      24.247403071626763       1.272010827539656
    96   1      14.119225509571788      25.819116059130415       2.968734991742664
    97   1      12.794566206305879      27.516264706996978      27.101524344830821
    98   1      11.184465394358943      0.0501312200748769      2.9151818251615875
    99   1      14.430938304316193      2.6041936417701441     0.18191239479624527
   100   1      13.040089321719499       4.432777150817536      27.267092684072793
   101   1      15.895239686358414      1.3467517793606156      27.268616738380661
   102   1      17.161878547328659       5.824051553599495      3.0584860545605639
   103   1      14.569590226163141       5.629720777806317     0.30970316376398077
   104   1      15.929499950209923      7.3661453213995971      1.5162887900950852
   105   1      14.614061893697532      8.6249942162710518    0.041088313205841671
   106   1      15.744891374887958      10.243302935255437      1.7193118072808473
   107   1      14.386704552446481      11.645824905659572      28.482771535984746
   108   1      15.883749667305734      12.997953908828441      1.4660779537211397
   109   1      14.481600592945515      14.332647616647437     0.15345479757889949
   110   1      15.778118743064597      15.834411637425474      1.4952240698878878
   111   1      12.975727974743558      18.447939061041659      27.323369799377431
   112   1      14.370770853596722      20.232793389635574      28.671163035019156
   113   1      15.767382103622809      21.516619468069766      1.3325333687973047
   114   1      12.780451983543346      24.445891763768124      1.5381919062677627
   115   1      15.598831687825149      24.475936583049592      1.6144660780815583
   116   1      14.130594379557568      25.929480169144753    0.025021435352641678
   117   1      15.754564290257251      27.059486595013325      1.4472270483283756
   118   1      17.184370864805071      28.551503758926703     0.24508712262364735
   119   1      19.033161973317203       1.426281952883766       1.351218248514521
   120   1      17.178726231881527      2.7660580081482511    0.037825476038608551
   121   1      18.736449853976822      4.1939483253396759      4.3453504765518263
   122   1      17.312577369771461      5.4165991326070984     0.19334947520318335
   123   1      18.637839390465818      7.0194211811131666      1.4745593035544073
   124   1      17.153746254154065      8.7975325987332713     0.15708769055441973
   125   1      18.675927677974691      10.050382377499155      1.4279811327314418
   126   1       17.41132988148728      11.512108171469631  0.00051374344899386454
   127   1      18.685036114127119       12.97938266181373      1.5731258385712645
   128   1      17.412646224885545      14.384297674633485       28.67569378582732
   129   1      18.587618750580962      15.877982567341407      1.5433788685247805
   130   1      17.250715175004121      17.456839675186874      28.541999309586501
   131   1      18.822706402733857      18.640247281258034      1.0234432124677595
   132   1      15.756618624222279      18.661926388240488       1.486986666339293
   133   1       18.85454217407591      21.347080869298473      1.2223813881880121
   134   1      17.225156658252718      22.906546894762577      28.659111617160889
   135   1      18.628746193963138      24.488723312888467      1.3770640795849434
   136   1      16.975321045729661      25.654241957963698    0.073407707658884783
   137   1      18.743459136269802      27.202570898739282      1.4974803785020301
   138   1      20.352217140964068      28.551860568944107      28.656791721545218
   139   1       21.62758417023084      1.3541838474507706      1.4538143437563673
   140   1      20.179825389091505      2.9600638993410939     0.10042984435348203
   141   1      21.612448649231109      4.3575110766530427      1.6900743965671368
   142   1      20.179559320009936      5.6505721111793603      28.698886100612913
   143   1      21.448562854218931      7.2710350713124186      1.4269721093342227
   144   1      19.970973701604226      8.5366904377777431      28.649131908720054
   145   1      21.615678869437996      9.9486371198870565      1.3512573888414854
   146   1      20.207740311529825      11.402770319669569    0.039802830670157614
   147   1      21.669950467171688      12.779387546745404      1.3744340195512801
   148   1      20.311843743853817      14.160235188004179       28.65406186275608
   149   1      21.619225816131365      16.037085594484225      1.3726047298547202
   150   1      20.085854395457481      17.086324166369426      28.534521777488507
   151   1       21.49693108914769      18.644829340743083      1.3641510018772809
   152   1      18.699525322823572      18.956039710505742      27.322425087094402
   153   1       21.57063842292019      21.437908415383511      1.1596112581134206
   154   1       20.11097074537221      23.076104520036139    0.026758157871688577
   155   1      21.686035105135126      24.360191085989538      1.4102349587910912
   156   1      20.241431173791312      25.699659130264347     0.24871737054821788
   157   1      21.735126007935769      27.242541200536916      1.5593956841067895
   158   1      23.176074341659636       28.64665067506224      28.659228758009775
   159   1      24.282951798116592      1.2432525372560581      1.5960158853947524
   160   1      22.966727718940238      2.9299987162545742     0.44781917106562336
   161   1      24.347744080794346       4.469440960246934      1.7822379315865298
   162   1       23.00027803521526       5.707108155682433    0.034374536427412616
   163   1      24.509194033660108      6.9154634135635886      1.5014013493370599
   164   1       23.06721633222276      8.4640296955140073      28.692577345260194
   165   1      24.457930791671149      9.9332206521519861      1.3572999380810307
   166   1      23.086227966138242      11.413728400256243      28.622347212722573
   167   1      24.145015857001304      12.996952211058094      1.3570885595567566
   168   1      22.977602106307959      14.465587559328348      28.543645882556078
   169   1      25.863940112775399      14.443576666264702      2.8333143737510773
   170   1      24.447949990623805      16.001106637356973      1.2269823072237716
   171   1      24.423147333341344      18.617429951859805      1.2741017963996895
   172   1      23.073983005060722      20.027811723566529      28.433390966300781
   173   1      24.418082940326137      21.619045999824237      1.1524966509785486
   174   1      22.977945584461505      22.914404682688154      28.628591754334835
   175   1      24.444053755608852      24.389990667989412      1.4199442179896902
   176   1      22.975034613028679      25.787895536627992       28.62171400329575
   177   1      24.518018697935307      27.338346686026846      1.4966063811732042
   178   1      25.793463540109013    0.071642455794778875    0.046734976365371377
   179   1      27.164553534843098      1.4199851247868889      1.5007394967909122
   180   1      25.566452290266351      2.8443627018352209      0.2722955223420172
   181   1      27.295785776692053      4.3048855925094358      1.5163277574897374
   182   1      25.958373505018162      5.6346081353309518     0.13163981033032993
   183   1      27.496767511041064      7.2148754701827507      1.4242699443573414
   184   1      24.553612002897548      10.047580210772562      27.252468558625225
   185   1      25.836980537353693      8.5125595805663625      28.627895577635243
   186   1      25.937490085541057      11.470976821127547    0.038458386611409823
   187   1      27.194552139312652      12.994916872725907      1.3403568204268834
   188   1      25.699826603095019      14.576895691735064    0.096461299582074445
   189   1      27.190804026064363      15.989654367368116      1.4965502421654484
   190   1      25.942571216182703      17.226294409707613      28.681951124171249
   191   1      27.125206861857126      18.752668400420404      1.3897502167820774
   192   1      24.426771734668517      18.537328565376853      27.234342463000274
   193   1      27.194507589455068      21.628920457918056      1.3208286478568427
   194   1      25.831846320205432      23.093823452835377       28.55382137021326
   195   1       27.32203049745041      24.372267952334607      1.3198953295278795
   196   1      25.852352309393279       25.82874527383796      28.582780764595046
   197   1      27.214999277945676      27.091164838739573      1.5858939448749541
   198   1      0.1787374692008844      28.419562719251033       2.609048178128059
   199   1      1.6502862978792692      1.3102732155220227      3.9864928943548055
   200   1      28.684478285568989      2.9778432608293501      2.8077612029511432
   201   1      1.3363239680863321      4.4385662999827655      4.2992471734160036
   202   1      28.681329439104946      5.8201478390312245      2.9847724640258497
   203   1      1.4840768322249696      7.0554451823096507      4.2070121122860957
   204   1    0.098477788749097087      8.7785966662447521      2.8078207650372176
   205   1      1.3154239818725719       10.05088626452747      4.1963940056056259
   206   1    0.035293387867796816      11.717187249346349      2.9421921196651333
   207   1      1.4197723106970104      13.085777924855002      4.2767185376058947
   208   1      28.569523274620085      14.455866308860797      2.9491479857084277
   209   1       1.593809177540062      15.876790903004192      3.9424109388407049
   210   1     0.02465379697826061      17.220443321892404      2.7875906024297028
   211   1       1.519310995410843      18.626478361526853      4.1967033542536658
   212   1      28.503635802468494      20.205728372148897      2.6300545545343286
   213   1      1.3494330795439535      21.341271676948448      4.3257835774936098
   214   1      28.685359873148574        23.1095882156757      2.8427747788276623
   215   1       2.964863744795855      25.691065037817225      2.8491160403356166
   216   1     0.11752277029909403      25.722202697297156      2.6868751019346853
   217   1      1.6596598935815343      27.280805051505574      4.2884659986590101
   218   1      3.1067987333046543      28.619054383626963        2.71047499030957
   219   1      4.3527079302698786      1.4201765490934684      4.0523782579384555
   220   1      2.8597532913580843      2.7223385273308169      2.7556108741572758
   221   1      4.4496314497825464      4.2225905698850967      4.1949539443120649
   222   1      3.0415760564507979      5.7547858691009743      2.7546372599927054
   223   1      4.3227728576423745      7.2421622622508899      4.3409027175901294
   224   1      2.7669357218659019      8.5700287425723012      2.8233785070152067
   225   1      4.3164147880736419      10.159738914922466      3.9774363025596116
   226   1      2.7807480620550353      11.567474261970503      2.7217703006631835
   227   1      4.2991537033074358      12.809066836691899      4.4730990473730445
   228   1      2.8318653589418088      14.139137708819447      2.7858385049716383
   229   1      4.2158247181306097       15.78153100923441      4.3821180751609621
   230   1        2.95686686028048      17.207263446605278      2.8900290164653928
   231   1      4.2555864951280595       18.70281772229653      4.1775176339437277
   232   1      2.9047496567213034      19.878801895098043       2.658494664223304
   233   1      4.3162526617784946      21.598630902092257      4.2641511297871295
   234   1      1.5020984000902133      24.307737265706713      4.2178086556065777
   235   1      4.4609178354963577      24.359539803362797      4.1521813799133671
   236   1      1.5713027215771036       27.03197071317781      1.3972601307303312
   237   1       4.254279734798585      27.247833275383371      4.2508361634070537
   238   1      5.7613879284770384    0.027419214918109166       2.898937913093564
   239   1      7.0156201743438471      1.3932383336362033      4.3847129368081958
   240   1       5.832258860772197        2.75906096444213      2.7509595813072205
   241   1      7.2373106809273935      4.2926522131102134      4.1238254810200026
   242   1      5.7979699973239898      5.9665188604374171      2.7424049395685848
   243   1      7.3716165599613932       7.421603945666801      3.9836379366084209
   244   1      5.7198547965414708      8.5689992585852472      2.6187304786145762
   245   1      7.4670003020116908      10.080291409021774      4.2503622354913642
   246   1      5.8416359718610034      11.391450277910439      2.7933999469213848
   247   1      7.3702470964756532      13.054762777449165      4.2766825241330437
   248   1      5.7314863788895876      13.988037817270447      3.0183743679368091
   249   1      7.0679321390550234      15.819088419014271      4.3196146991431981
   250   1      5.6872482084314786      17.017673626000356       2.902662326232992
   251   1      7.1213675060189194      18.707929393001049      4.3898030118329121
   252   1      5.6562717738002117      20.043771491483476      3.0269190093516718
   253   1      7.3142759079594004      21.575987234456345      4.4425362252010876
   254   1      5.8098660254752446      22.960833784318393      2.7940178447273287
   255   1      7.1912148295457579      24.528413844559985      4.3066975946325252
   256   1      5.8875454723219702      25.987839266031788      2.8517887924468242
   257   1      7.2867212532091425       27.02278055357921      4.4800361812197353
   258   1      8.2790792973023475      28.683641331203692      2.7970174812360602
   259   1      9.8098392178659495      1.4445384910176231       4.115000585492985
   260   1      8.5653347778610964      2.9667051430626996      2.8828731235120029
   261   1      10.125117720620915      4.2554972811427003      4.3493274985825359
   262   1      8.6018505292074039      5.8306814887956211      2.7049518766059109
   263   1      10.121633470140548      7.0663862682744689      4.2040023605047194
   264   1      8.9714964625897053      8.7395506794437416      2.7820838650221384
   265   1      10.193682934005848      10.055478325722962      4.4523469673682508
   266   1      8.7289573179998783      11.471722768195709      2.9809918261026032
   267   1       10.21074617394601      13.018775481591804      4.3162120671443409
   268   1      8.6365551294046892       14.44417190863267      2.9916686604016514
   269   1      10.157521937111749      15.949857800220736      4.2284192772587144
   270   1       8.332199266018419      17.255841860397279       2.763005479593267
   271   1      9.9989592913009435      18.589922465161884      4.3891766248029356
   272   1       8.716969254131012      19.999373980656308      2.8390988214877209
   273   1      10.197059553198219      21.395132246063461      4.3565404899312119
   274   1      8.6375539512311459      22.660051174173169      2.8568487151384363
   275   1      9.9210450070505924      24.299740316838879      4.2346639984953178
   276   1         9.9509923575296      27.354000497214166      4.3682787932687921
   277   1      9.8698809929244788      1.5197938778765214       1.447978461863239
   278   1      12.867127813152042      1.3171571093239443       4.207026234863136
   279   1      13.064437147393173      4.2010662372498118      4.2054694924215585
   280   1      11.560823759510164      5.7262395431828681      2.9349971498366849
   281   1      13.005959258612299      7.2032016697392915      4.0024514204062465
   282   1      11.611723680781326       8.729407940016392      2.7524444545796549
   283   1      12.840553475570381      9.9969112498748824      4.2353701914036614
   284   1      11.600654914503298      11.633194944875081      2.9368914381497122
   285   1      12.950610273055482      13.123892536406768      4.1103742900948932
   286   1        11.3222844502047      14.398218333917953         2.8032199266647
   287   1      12.942977868130507      15.715839802918248      4.2722892287021761
   288   1      11.850300762877794       17.25972305329314      2.7613441879128922
   289   1      13.007316744934228      18.848602364163842      4.2925223669781403
   290   1       11.55423329823417      20.028906572127049       2.749923502227146
   291   1       12.87328800958978      21.577248596880931      4.2363518123202137
   292   1      11.300764719932474      22.803877505739237      2.8065121745441486
   293   1      12.699762258029818      24.283924834091255      4.2763206668615901
   294   1      11.192931736525136      25.782298453711363      2.8375546194985977
   295   1      12.740282946798322      27.269425766649206      4.4119054808415203
   296   1      14.453699204061857       28.67800732203921      2.9018684034163744
   297   1      15.924671492707603       1.354341697905534       4.193979641821354
   298   1      14.336221488047849      2.5866533247882657      3.0036685755027759
   299   1      16.108883232144905      4.2983467107188638      4.3006318743915575
   300   1      14.572872822555862      5.7558485771141701      2.8022379352264348
   301   1      15.781803195586484      7.2139056918618021      4.2238483994181673
   302   1      14.396824882559622      8.6458016538694444      2.9402116613813054
   303   1      15.837835424148128       10.07469939439777      4.3332014886427812
   304   1      14.219657313844397      11.637043138105517      3.0794218650236287
   305   1      15.799706448620155       12.85022203790764      4.2468689830393123
   306   1      14.575850608226352      14.166729167856879       2.961645378141128
   307   1      15.602046796848944      15.758626294670151      4.2124095141115871
   308   1       14.35032764825775      17.412272743946627      2.9875015207619064
   309   1      15.968164267933719      18.675225095700903       4.509662074486922
   310   1      14.357631088944713      19.907749441787658      2.8246028329447879
   311   1      15.732608808235302      21.552183017473165      4.3185558527465995
   312   1      14.265407602008233      22.962655399639104      3.0082484137598762
   313   1      15.763811604231199      24.419750014466779      4.2563102482276038
   314   1      12.728318833896408      27.298866896859622      1.5010669507188374
   315   1      15.852220811402136        27.2029229083148      4.3069508676594879
   316   1      17.194024910195704      28.520619028658135      2.8608244251434147
   317   1       20.19307806975954      2.8660600745659282       5.733804319397164
   318   1      14.322937236343295      28.525981815199248      28.651997470126592
   319   1      17.543610335774201      2.9860594427436844      5.7602858733822675
   320   1       18.65257986653198      4.1538072432116575      1.6687166889729503
   321   1      18.746339615753097      7.1855942910125581      4.4089652068979026
   322   1      17.244193695947942       8.550772084662011      2.9738797422700975
   323   1      18.612705184814327      10.071691697522532       4.386027225290567
   324   1      17.265028282108389      11.498716422415553      2.7928555466269223
   325   1      18.636678175482032      13.091314137708963      4.3761603392866695
   326   1      17.289675262657521       14.42772408821965      3.0237022914547205
   327   1       18.71564900457059      15.738127589984719      4.2645391666861423
   328   1      17.193321557999369        17.2076463079108      3.0972177965244172
   329   1      18.454086778609248       18.67981868077981      4.4382160534221624
   330   1      17.266561324917475      20.044218339444217      2.7059246443871974
   331   1       18.65024920194741      21.508188605159429       4.367937738683259
   332   1      17.225412874473339      22.780439995408322      2.7827436125878089
   333   1      18.649573390180148      24.387528330766781      4.3672232645943181
   334   1      17.194516691883898      25.753140465560826      2.7990422972402254
   335   1      18.490156600404713      27.105436891662173       4.207065004100687
   336   1      20.172393978738626    0.032274255879724628      2.9690541009695717
   337   1      21.526646883160236      1.3771429675102231      4.3821840881107175
   338   1      20.124139326992708      2.7366239530166472      2.8993612720885693
   339   1      21.747577434323105      4.1165960990351724      4.2861407182823577
   340   1      20.042387981914054      5.6364799966224401      3.0686223656344014
   341   1      21.369950346838074      7.1559464880460091      4.4622685316873776
   342   1      19.963992495944368      8.5582099127349114      2.7695550456713458
   343   1       21.33276355996281      10.010631303795067       4.144508717618069
   344   1      20.053077296358968      11.575797488881339      2.7930732843331048
   345   1      21.625467140617253      12.861053590789091      4.1749396953551292
   346   1      20.446240245377023      14.335497681017275      2.8176823609196391
   347   1      21.603266563471195      15.842165913033995      4.4123794706657753
   348   1      19.988472716848328      17.216449126075553      3.0285175213269619
   349   1      21.413172846525914      18.843199997219063      4.2913336523112875
   350   1      19.989439051956115      20.012408025512773      2.7605996166127618
   351   1       21.51425734757046      21.423382500166824      4.3212729528745539
   352   1      20.118339157976035      22.851929164851668       2.830908966618074
   353   1      21.698133333438214      24.447885107527206      4.2418685706692614
   354   1      20.214906463587138      25.774265369224057       2.946725545321863
   355   1      21.644579723715022      27.119852147750048      4.4736700731485923
   356   1      22.997834716151896      28.540932593761518      2.9246957348415203
   357   1      24.617272346954181      1.4202975549131234      4.5274404520317262
   358   1      23.013206604380247      2.5528044236609038       3.108300619669714
   359   1       24.40570303144202      4.2329759724799292      4.3618739546276917