dump/Cu_720_0/steps_21 (written by ASE) 

2000 	 atoms 
1  atom types
0.0      25.526554800834361  xlo xhi
0.0              25.5265548  ylo yhi
0.0      36.100000000000001  zlo zhi


Atoms 

     1   1     0.10100763405875088     0.15856132908239037       35.86723907389208
     2   1      1.5309630789785444      1.4456270400176587      1.8230264818025599
     3   1     0.21453572461161877      2.6536219238143186      36.025877198649404
     4   1      1.4499063900223863        4.06074631646554      1.8236220813925128
     5   1         25.331138707287       5.033295963154071    0.037629402252810071
     6   1      1.3507672581505394      6.4103232702476873      1.6862905953053653
     7   1     0.20288683673412788      8.0539538576524947       36.06507947739545
     8   1      1.3253903293545255      8.9367533456358075      1.7870213380812301
     9   1      25.345923405433801      10.451168522577895    0.023606892379484629
    10   1      1.2463667119250488      11.512772264014764      1.7164529622949884
    11   1      25.431017723132125       12.89382299768544      36.078875008943051
    12   1       1.139462358506889      13.932001571425442      1.6016576351098271
    13   1    0.089637035787501332      15.466667600040221      36.060112603906575
    14   1      1.1087139378216229      16.805542166839498      1.6346669878696034
    15   1      25.519216801491023      17.956347185937663      36.008533849647264
    16   1      1.0155817281720012      19.174732406970275      1.7808972573563546
    17   1      25.397114754849909      20.559511353124883      35.926238670150617
    18   1      1.1757018518241793      21.735148044402091      1.8654271682818617
    19   1      0.1424846036057752       22.97661629608238     0.11962603539706168
    20   1      1.4912369883464418      24.407393620278921      1.8854671989919221
    21   1      2.5136771755559253    0.091733069790688737      35.971546230490887
    22   1      3.8513024866279748      1.2674369621904791      1.7800220969793152
    23   1      2.7180139605879488      2.6732180992319901      35.884717074404548
    24   1      3.8018320415385713      4.0530140345035264       1.817900158754219
    25   1      2.4863903062567858      5.1676329826527718       35.91673679793697
    26   1      3.8954069098242652      6.2219458778177934      1.4885935036788627
    27   1      2.6996868013177058      7.6649428037240526      36.042525466193915
    28   1      4.0155731283873264      9.2227453265044907      1.6579656613023515
    29   1      2.3958037548519329      10.313392749625628      35.917497642010844
    30   1      4.0615275392450174      11.536115939462242      1.7095637887936177
    31   1      2.5473441498145668      12.864100938564585     0.15626230954006809
    32   1      3.7082542559984248      14.244110389237962      1.8407849710153876
    33   1      2.5690508178973586      15.348312950757503      36.041408024372132
    34   1      3.8101715346332927      16.595246444016144      1.8868949872554941
    35   1      2.6102187557027179      17.858107781291736      36.090013973301495
    36   1      3.8530260818447237      19.043562033857089      1.7645223365581502
    37   1      2.5745146897393947      20.356361589856483       36.04928777413101
    38   1      3.8632518347899811       21.58255309513542      1.9377549397720712
    39   1      2.6320850197889323      22.886469638230206    0.033354908081412296
    40   1      3.7713584124385724      24.264421795280388        1.69056682644051
    41   1      5.1679277370876795      25.287760917434188     0.01518890514344094
    42   1      6.3432615736917635      1.4865245949212504      1.8024164696442324
    43   1      5.1640732968058636      2.4713012343890921      36.039874802560519
    44   1      6.3902212821482394      4.0749659268307594       1.890868163778294
    45   1      5.3191167772466548      5.2709491860240814    0.021577069789532288
    46   1      6.4768593220918467      6.4345943713949092      1.7326117328040374
    47   1      5.1620369484366826      7.6750052759683589      36.033687851418129
    48   1       6.311781881413391      9.1036054227134908       1.577740054920207
    49   1      5.1389007840863181      10.227331903592395      35.767814014959519
    50   1      6.4303293481561514      11.475576348056373      1.6205312497009692
    51   1      5.2145822088698042      12.766020271866285       35.80004948103106
    52   1      6.2912032492730363      13.889533153637103      1.7198710335436553
    53   1      5.0977196301398306      15.601680216952404    0.041890446353261376
    54   1      6.5016991391589665      16.502016172026647      1.8741895704306004
    55   1       5.138073010724507      17.885213543438891    0.055768813274619154
    56   1       6.520222689002237      19.149584699923803      1.9004403952128768
    57   1      5.1312010525512193      20.286624541718314    0.065374373431382179
    58   1      6.5357680193428189      21.685249731018594      2.0426030924318077
    59   1      5.2115743809458586      22.843434226275914    0.039801707130209335
    60   1      6.4122029302453196      24.156009181300721      1.8078208404517462
    61   1      7.7372191818522822     0.14571303863718271     0.13685017007020414
    62   1      9.0767958986890527      1.3279135505319148      1.8344684810737026
    63   1      7.6315880141946355      2.7036537273048786     0.16473796756197312
    64   1      9.0632854577494353      3.9025939086197878      1.5768033982361072
    65   1      7.7478908105638524      5.2952045631017404      36.091811807019972
    66   1      9.0979561967528664      6.3644714714551442      1.7592603909255009
    67   1      7.7391467171859158       7.649748042781324      36.014442850363196
    68   1      8.9556845690493763      8.8919033606584517      1.9805882785300937
    69   1      7.7233535565162148      10.280299390476562      35.849583210749394
    70   1       9.066053977722218      11.557388833616658      1.7141899511799583
    71   1      7.7055117717168731      12.791823488535965      35.886530048036548
    72   1       8.885120175414146      13.903940732886344      1.9392434488903967
    73   1      7.4677880702790809      15.337747190530818      36.091533310888437
    74   1      8.8997240906235628      16.490734959161355      1.9367641662061048
    75   1      7.6430496204069902      17.834780983947997      36.089456942137765
    76   1      8.9681529470847057      18.891531943106532       1.908712876371101
    77   1      7.8735315485726591      20.528656281974172    0.024597132400811017
    78   1      8.9180562316198912      21.550133956176076      1.9504239672994135
    79   1       7.658842234101459      23.019595635718407     0.17387582290771189
    80   1      8.9028330815127514      24.161858640151049      1.8150113864160073
    81   1      10.191594774030083      25.350234371170671      36.019887534996649
    82   1      11.358880572257439      1.3450883408149523      1.8615714547292004
    83   1      10.303513346545037      2.5996960176628385     0.19670432177134667
    84   1      11.919196603161875      3.6660931875827369      1.8528320382531094
    85   1      10.264471689179121      5.2923271705902044      36.026763290006031
    86   1      11.729003493219137      6.1999635895677159      1.8433703731158391
    87   1      10.375627004751902      7.6270684138190354    0.048716418234607595
    88   1      11.474337794128772      8.8141438966368657      1.9752609351680592
    89   1       10.08188044039807      10.069038489689664    0.068528355230614443
    90   1      11.571107084613457      11.535336268564658      1.6737105959415677
    91   1      10.084441269053787      12.743009485628138     0.02264010275388274
    92   1      11.525034537842483      13.978457254349147      1.9086130662004637
    93   1      10.262946103341823      15.152175607677886     0.14684683127463827
    94   1      11.632980807333675      16.385606483620819      2.1352580805031596
    95   1      10.381794277175402      18.008100992139649     0.13157324504543352
    96   1      11.512486407207739      18.972615763854158      1.9716962434238685
    97   1      10.328745348837321      20.517877065039261     0.18897952736235779
    98   1       11.43436177196487      21.519955661831006      1.8925078426786754
    99   1      10.397362783780718      22.816585962483131      36.015529731986689
   100   1      11.220354050940381      24.040601445215412      1.9223074610867679
   101   1      12.612884550797506      25.325176515710954     0.16688612545563034
   102   1      13.927645197539947       1.237217699231971      1.8155135980173227
   103   1       12.75261990360074      2.2536992327190792    0.057464446373944475
   104   1      14.196792167449416      3.7177431340498859      2.1433463888786402
   105   1      12.828671430856929      5.0426927925743197      36.069764561503966
   106   1      13.988301176461464      6.0946724656825575      2.1020170845864858
   107   1      13.155989659995276      7.4774967735469362      0.2075491462763126
   108   1      14.270873622604196      9.0528445989111663      1.7709467587028951
   109   1       12.72213776719884      10.030521924444335    0.064693643386010691
   110   1      14.279640705158588      11.511605129059092      1.8464877605153789
   111   1      12.837635006365181      12.726251028261595     0.16350196743022705
   112   1      14.112001650064061      13.895619096867552      2.0962855149736712
   113   1      12.576975623095359      15.373470888391257     0.12294230415456008
   114   1      14.038863407995191      16.543515017418496      1.9019361344781505
   115   1      12.748595050845386      17.904465464071794    0.047840305182239681
   116   1      14.286966413225761      19.083255814288123      1.8443033863569089
   117   1      12.907700599519137      20.408211013638603     0.11424868067211938
   118   1      14.193407917204901      21.852308436279529      1.7397715694846516
   119   1      12.826371785374604      22.816390920206366      35.992407870369668
   120   1      13.928080636874876      24.264058593953141      1.6973305524880637
   121   1      15.194839737895448   0.0022987776233839865      35.793630974594286
   122   1      16.345911035594707      1.0091980026608163      1.8264651951954314
   123   1      15.089849170705595      2.5477491151947542    0.028338872715698918
   124   1      16.568450335538465      3.9727420311292025      1.8647365358436223
   125   1      15.306667612571859      5.1842299717516926     0.19784661814129534
   126   1      16.635129573861445      6.3336510971218853      1.8337517717011234
   127   1      15.509076028159118      7.7171878380998589    0.061645149214473401
   128   1      16.658331456552084      8.8603053267194838      1.9143346073303076
   129   1      15.421388246304771      10.408584230314768      35.791122908000879
   130   1      16.626162134368425       11.17458336279906      1.6713146263661431
   131   1      15.317592733572383      12.686182682521096      35.901993793166319
   132   1      16.594384714310753      13.916747091228554      1.7929544367636485
   133   1      14.998149522555591      15.116618995710507    0.035146901555958718
   134   1      16.581929082702128      16.669788217594206      1.6914878694528386
   135   1      15.199670653744837       17.83579988766601      36.022792737707135
   136   1      16.642428606078745      19.119276840727064      1.8368637664554726
   137   1      15.430374623602258      20.315332966311093    0.081131070710114148
   138   1      16.610816522629438      21.704838182346737      1.9940110219505982
   139   1      15.291795181409682      23.049535149722303      35.980702703560119
   140   1      16.391426501678918      24.308442165268524      1.6436873323955641
   141   1      17.807653223162589     0.13486212867326383     0.18051253959375796
   142   1      18.827276573498008      1.2783575594808285      2.0491822369944304
   143   1      18.087349708436374      2.4870056566436221    0.087863967626242531
   144   1      18.876471517916439      3.8397087278955921      1.6596951159722957
   145   1      17.776367421846022       4.881905637979516      36.004777421759869
   146   1      19.204695390963259      6.3492568117750752      1.9386154899941979
   147   1      18.051451542550335      7.4469673708272701     0.22416191741219804
   148   1      19.349619768315847      8.9336527304559112      1.7169608191854635
   149   1      17.956657005059704      10.095709191707684    0.010226013911142227
   150   1      19.269170623813871      11.627089317258454      1.8568281685556358
   151   1      17.886884728278105      12.745155970449943      36.093126891337647
   152   1       19.10241150676228       14.16811909690071       1.847313698069776
   153   1       17.90579295217627      15.250480451082218   0.0047621068917465016
   154   1      19.228282782658646      16.771068043758923      1.7489168276037745
   155   1      17.847048928212995       17.82296975740222      36.060604221051769
   156   1      19.127627729744773      19.152495295523984      1.6640775426176204
   157   1      17.910314274226927      20.247295700250465      35.958913351945831
   158   1      18.991615846203036      21.781518555254674      1.7303482518563333
   159   1      17.925476910398711      23.148197249571925     0.22586911627350906
   160   1      19.247566015546525      24.383594573142048      1.7548459549382973
   161   1      20.428086114303813     0.22267267108052388    0.052342554258245938
   162   1      21.706600264246198      1.1184523137287603      1.9226418551213789
   163   1      20.509875095004841      2.5073838611017996      0.1114257524205412
   164   1      21.536902950271521      4.0271072621624686      2.0144091194590614
   165   1      20.355528899853258      5.1515842887410592      36.095837812787458
   166   1      21.929372982392032      6.6021888911265156      1.8829075281707328
   167   1      20.531209212651156      7.6475644827342757     0.18819831134967452
   168   1      21.919262617160619      8.9895386894387688      1.8362136767203308
   169   1      20.371698126174952      10.357859335695716      35.904474935660183
   170   1      21.607650848514616      11.471587915615832      1.7769990726767217
   171   1      20.455056366622447      12.795327122347384      35.977232341961098
   172   1      21.581051774835483      14.042592752721523      1.9772058865828857
   173   1       20.42163421750687      15.269175362757972      36.023719090681503
   174   1      21.747429475936254      16.658995689137079      1.8156769048883017
   175   1       20.59216887300094      17.830163846352285     0.18072950340480248
   176   1       21.90521423317275      19.204016586134642      1.8574641131216041
   177   1      20.339203243129869      20.482679528314335     0.20129624325118131
   178   1       21.67868361509057      21.877615257792151      1.7731694864361673
   179   1      20.408205522355644      23.089267767760198    0.066011392371399497
   180   1      21.774599985160457      24.094383589942446       1.845251603611314
   181   1      23.027459008088538    0.071475331027111941      0.3384863269654601
   182   1      24.284420814559031      1.2519398298988826      1.8935557208295788
   183   1      23.125415868463346      2.6195781187256948     0.25595749451820193
   184   1      24.004343948768273        4.08758602958265      1.9986754482167493
   185   1      22.940667981806726       5.370355277035201      36.026154181404173
   186   1      24.393908835983193       6.387881313720241       1.804204971022455
   187   1       22.95907012190364      7.6893644041234124      36.097435798233484
   188   1      24.471737465878988      8.8019736425145538      1.8256546416763839
   189   1      22.963033300856381      10.136585462112429      36.086629760613654
   190   1      24.139442489173693      11.484110461854998      1.8425754804738643
   191   1      22.867198364559911      12.887848067490058    0.024343042340422023
   192   1      24.323394050619239      14.154085493392556       1.752370288006706
   193   1      22.849342912269108      15.354888171458517     0.11636295428048692
   194   1      24.213659827481237       16.57749406087726      1.9185093402970197
   195   1      22.980695279178544       17.79926674570924      36.091068452856128
   196   1      24.316921610842265      19.200179941399703      1.6464253176790866
   197   1        22.8827409088934      20.458118829724292      36.059395775213602
   198   1      24.312769558874113      21.823798465826005      1.8259477772906978
   199   1      23.081314104121578       23.06798686655927     0.15977076199847021
   200   1      24.542548374258764      24.257136944382985      1.9011914195749788
   201   1      0.2213583833306095     0.11802543676963596      3.8724413915112206
   202   1      1.4637788104955303      1.3945593064433615      5.2295102621959035
   203   1     0.04451178289815752      2.6698324216602383       3.477204353274034
   204   1      1.4159524905335017      3.9789222658063057      5.1224511645935271
   205   1     0.06853436159953008      5.2008600070350299      3.4215931312780881
   206   1      1.2714752768348234      6.3951947538041738      5.4400612347884145
   207   1    0.042641409451167164      7.5813564973233554      3.5693707928585794
   208   1      1.2486582001632369      8.9897298035842113      5.5965465297864867
   209   1     0.11741928891992466      10.242186805454381      3.4255865293328274
   210   1      1.1832604106182019      11.314011240219459      5.2438813928952568
   211   1      25.481169869673213      12.754293380163743      3.4907604247286717
   212   1      1.2323325942428685      14.181832644678554      5.1685901796659888
   213   1      25.368313807986215      15.347460622174705      3.5631478612377783
   214   1      1.1290440715731984      16.567125164533653      5.4037397857525189
   215   1    0.033655674550666856       17.91735566809631      3.5678563140048722
   216   1      1.2677534559862695      19.310738508772122      5.2495346553442461
   217   1      25.355380587130487       20.21529126562427      3.5492075431320136
   218   1      1.1771895345151528      21.868297287243717      5.3403257609413473
   219   1     0.17701754492414623      23.111022776026548      3.5538330708816495
   220   1      1.1995125788390628      24.369210683167356      5.4671986733765383
   221   1      2.7418925648469301      25.486001091302448      3.6665449348464776
   222   1      3.9005005873413459      1.3425486624623442      5.3636317762673489
   223   1      2.6808532899880952      2.7422868451547227      3.5862213070839397
   224   1      4.0816916483132237      3.9863741369237862      5.3533855307692066
   225   1       2.558287629182165        5.32814281838015      3.4207257299509011
   226   1      3.6015150252304098      6.5691765063299519      5.3440371436812182
   227   1      2.5440972537228586       7.789588474311004      3.3583582299612647
   228   1       3.836488343675108      8.9275291285609182      5.4015061696422189
   229   1      2.7018400092075652      10.234574215745752      3.3924760268997249
   230   1       3.592211389957098      11.455132650362815      5.4076842358563679
   231   1      2.2821451294195363      12.787761456935502      3.4244672524737894
   232   1      3.7546291288755458      13.971879006278909       5.242061730191975
   233   1      2.4415901687870227      15.388582160244834      3.5962466590591591
   234   1      3.7697006652220399      16.636000350213187      5.3701337553021995
   235   1      2.5281732851590348      17.804898818518559      3.6670101441995619
   236   1      3.8288488924616488      19.173348822628082       5.438566838768752
   237   1      2.6064524772131734      20.294692060115139      3.4632463923253014
   238   1      3.8213679881172804      21.666656043897937      5.1824242386398911
   239   1      2.6445667092478469      22.835328160516188      3.6226852762593569
   240   1      3.7248742931420509      24.390962334828806      5.3683722033642773
   241   1       5.022737996223376      0.1118330710245571      3.6288689312944293
   242   1      6.5771397896257788       1.433085968550285      5.2325267544785996
   243   1       5.235045953984133      2.7523695151038425      3.6841345022653575
   244   1       6.459961320601848      3.9470856112250567      5.0601136432150202
   245   1      5.1617268791658955      5.2545401488990402      3.5055487020916862
   246   1      6.2320025623025996      6.4779945491132507      5.2121451891383446
   247   1      5.0531629763453463      7.5755682749189113      3.5589834526182371
   248   1      6.3985962747570184      8.9913618278653278      5.4351651421567198
   249   1      5.2719004424968379      10.313909336381601      3.6054870780907442
   250   1      6.3720955627104212      11.257062332210097       5.664398237002974
   251   1      4.8673372901307541      12.603838564514524      3.7010485890593352
   252   1      6.4315331961952644      14.136600970140858      5.3332261320420562
   253   1      5.0617222706141041      15.291625876400706      3.7128248303781386
   254   1      6.4674305014862403      16.653605344835846      5.5198110656529389
   255   1      5.0888898583701279      17.990198193060191      3.5928167269066296
   256   1      6.5289578057237305      19.122760939161818      5.6029684401595317
   257   1      5.3516325803416303      20.454712132609316      3.7242215496428743
   258   1      6.5412467012532494      21.685977201978297       5.264857298336219
   259   1      5.0906374416460585      22.957102244695427      3.6489460856641469
   260   1       6.193438393152416      24.556352163758426      5.2408259027769351
   261   1      7.6129744440215372      25.383900620298601      3.3866282963777952
   262   1      8.8966701830309489      1.2477979600048716      5.4193579127382634
   263   1       8.008557398674002       2.685737301008392      3.4088300343099935
   264   1       8.937099654147918      3.8675640798213564      5.3439021308299566
   265   1      7.8624167327502343      5.2846323419303243      3.6079640253809084
   266   1      9.2030708580785898      6.3587040336220868      5.3630228838014942
   267   1      7.7507936533328419      7.7877392005788479      3.6607708851884713
   268   1      8.9808917591253117      8.8696265481691388       5.486233546066293
   269   1      7.7011624691697245      10.308397776404618      3.9048514070736768
   270   1      9.0165535745136101      11.619852796054468      5.4133525452426712
   271   1      7.7205115416564496      12.751752309534535      3.6206092743614264
   272   1      8.8230641192103008      14.043917350245058      5.5734612292336436
   273   1      7.6247650770139455      15.291241345030077      3.6880587828812765
   274   1      8.9145388773867236      16.531101492444456      5.5588744720959129
   275   1      7.6385388939468735      17.898550962245302      3.8758410289265099
   276   1      9.2024193368473988      19.174796848073473      5.5766314661418415
   277   1      7.8004176099617553      20.464769141076552      3.6870499599494351
   278   1      9.0310808671551523       21.75864918928362      5.5639624109898458
   279   1      7.7262328367714552      22.987955349695365      3.6485934677657448
   280   1      8.8764660363709105      24.445686571850363      5.3348249293067722
   281   1      10.393159737521481    0.044451314900544388      3.6315613273649259
   282   1      11.544522488246864      1.3434020817946499      5.2417490982803097
   283   1      10.384371728761998      2.5123128342908614      3.8107396158429481
   284   1      11.573867916005952      3.7398864524359996      5.7458252676628465
   285   1      10.217088772186976      4.8274837181548698      3.3400774073734172
   286   1      11.578066686365801      6.4118494419996477      5.4135098702271476
   287   1      10.229485468328429      7.5386034899162953      3.5894076728673445
   288   1      11.464323582715204      8.8822041991161207      5.3981412178531505
   289   1      10.290487344109597      10.080760476436465      3.8234579991820223
   290   1      11.318879739191804      11.509021009786984       5.289657345344942
   291   1      10.318274440140675      12.657718827634387      3.4171911998071094
   292   1      11.440804503275865      14.002539447244494      5.3512687895697377
   293   1      10.130063870693835      15.155431492658009      3.6807917612219687
   294   1      11.353983575360044      16.560641251356429      5.5896743119261378
   295   1       10.16174081292726      17.597892251503261      3.8025638455373496
   296   1      11.526122577924337      18.961491287360609      5.5340717983885197
   297   1       10.24210035499509      20.290578311457701      3.5863021431294326
   298   1      11.564542900649528      21.613082236201961      5.2655687204855131
   299   1      10.285741872872897      22.790964530061157      3.6520484432281357
   300   1      11.618247624716503      24.228194875040938       5.407428922131353
   301   1      12.806574350438856    0.020881191247215412      3.3173832260493903
   302   1      13.906582735161559      1.0664979184980095      5.4151359898342974
   303   1      12.997950851900985      2.4925657946381188      3.7365116094233777
   304   1      14.075997356771126      3.7280424227220812      5.5188347560786308
   305   1      12.767352572537705      5.0003941398710099      3.9636729728096132
   306   1       14.18958803916451      6.5282073259189533      5.4466445803640724
   307   1       12.68972521301005      7.5627184372459446      3.5755034558080308
   308   1      14.081908769572008      8.9815271671266608      5.3660035697527819
   309   1      12.783697842249692      10.234931591957968          3.608940559363
   310   1      14.021441435487748      11.492515052391015      5.4818198949749251
   311   1      12.931507453605169      12.774689295052022       3.605046425699947
   312   1      13.773064713399313      14.034917069100299      5.5144980691024559
   313   1      12.977960032707125      15.154643445743606      3.5714134397229964
   314   1      14.049247991451322       16.68733339818521      5.4195850133844976
   315   1      12.824187510414507      17.926781701144822      3.6882613173843368
   316   1      14.014167157536104      19.106030944131067      5.3290616829602513
   317   1      12.784885011900114      20.481990985858957      3.6685390107826574
   318   1      14.101997482628356      21.630799364299886      5.5625758911154266
   319   1      12.808757069108141      23.066977996241214      3.6967875124216429
   320   1       14.24309712062268      24.170931762383695      5.6894458727508157
   321   1      15.268469075248262      25.332059470388991      3.8054715244514057
   322   1      16.486565859119491      1.3554508793433988      5.5846260000871135
   323   1      15.257978472517918      2.3495080725970228      3.9565046062808866
   324   1      16.677818555949706      3.8996810632589347      5.6265490245153993
   325   1      15.468844849201529      4.9416886823882482      3.6804097611441198
   326   1      16.672562723282731      6.3833045115491034      5.5430969797379896
   327   1      15.340990068370745      7.3494228945000142      3.5532427150198025
   328   1      16.627005024212721      8.6594503634634812      5.4446879748794483
   329   1      15.394822220890822       10.07863550604454      3.6807994642714488
   330   1      16.547675594641515      11.291108459711817      5.5000089543032002
   331   1      15.361432651547764      12.673775209995766      3.8255782915727141
   332   1      16.589227592382208      13.983633920145543      5.4018499479523507
   333   1      15.354151618660913      15.107037740994919      3.6095880384464731
   334   1      16.571986223964217      16.488462073545744      5.2934952635875154
   335   1      15.308842264076144      17.684129620043777      3.4493072907635334
   336   1      16.411778849935263      19.027088461971537      5.0979035916127025
   337   1      15.487254995007087      20.409559790624911      3.5252066978227066
   338   1      16.802439956525802      21.625511008792664      5.4979749069005681
   339   1      15.384756792620573      23.054949446103311      3.6220666592023241
   340   1      16.564689252814507       23.99579655331986      5.7053740861983071
   341   1      17.574566317003491    0.057604054991564527      3.6508306017912631
   342   1      19.072996478528786       1.328460102734712      5.4049008369247762
   343   1      17.602620450679989      2.5953757591757691      3.6826510951976759
   344   1      19.113792581649395      3.8981003318184464      5.3396136504573981
   345   1      18.002459283499554      5.2307780746443218      3.7853834191418514
   346   1      19.410625746776955      6.3637270357137847      5.4383231628449176
   347   1      17.835994152508039      7.5028155284410092       3.550196111571926
   348   1      19.218009870674077      8.8730666571392316      5.3211617372420514
   349   1      18.055308118360081      10.369426185520645      3.5042562275341442
   350   1      19.153002422187502      11.410235890557921      5.3629801121850056
   351   1      17.631406764648762      12.780040357488629       3.446645509738461
   352   1      19.257059813835472      14.130709901162353      5.4500502964199224
   353   1      17.959335328140028      15.202315771306857      3.6502582265106538
   354   1      19.199351466979923      16.531415606026556      5.4947321242184834
   355   1      17.828662405634596      17.962458216883189      3.5391834678709317
   356   1      18.810199138546572      19.157205996852511      5.5054304810767043
   357   1      17.954997157856418      20.356358963249377      3.4764947223979918
   358   1      19.106817944532192      21.932332400894886      5.5375367965306932
   359   1      17.986177338551098      22.889320249101104      3.5724617697798871