dump/Cu_720_0/steps_61 (written by ASE) 

2000 	 atoms 
1  atom types
0.0      25.526554800834361  xlo xhi
0.0              25.5265548  ylo yhi
0.0      36.100000000000001  zlo zhi


Atoms 

     1   1      25.462638447722195       25.36732496109941      36.039121058974985
     2   1      1.2039132977722244      1.3100015401172822      1.7646696765466445
     3   1      25.365407354929655      2.5990573425200432     0.15825235406904328
     4   1      1.2274485319719242      3.6743726884664998      1.8492239092328771
     5   1   0.0076588235364492691      4.9730824076985307    0.057460271068953225
     6   1      1.3444568980618878      6.1937675552956089      1.6742041772634597
     7   1      25.287188008813587      7.4978768482727194      36.094943435027361
     8   1      1.4072689876146314      8.8843407676001682      1.7693703260422575
     9   1      25.472263563156964      10.030088441892458      36.049538971795677
    10   1      1.1603533548314569      11.519638228290523      1.6674108415629123
    11   1      25.326692880570327      12.662288048069419      35.992329655277118
    12   1      1.2671046012680747      13.990530538453868      1.7708374299502352
    13   1    0.027194006224553247      15.327842063072449    0.034113228842863899
    14   1       1.101772388280547      16.368749466778556       2.062568630204785
    15   1    0.046160950372233257      17.823290001459991     0.17294287190113669
    16   1      1.2148462706823393      19.066695147946234      1.8483570426528315
    17   1    0.047530622494571365      20.361548604019209      36.014615996025888
    18   1      1.4528656155778568      21.621850569776161        1.88907285219642
    19   1    0.074479327361113137      22.917244928332877      35.915044356848703
    20   1       1.244615629861991      24.168518755825456      1.6441177217174285
    21   1      2.4467809811194643     0.11900714112211509      35.927184060159746
    22   1      3.7416894235454015      1.1180715920952098      1.5389815121294175
    23   1      2.6047634910592725      2.5037946914871032      35.916526460488697
    24   1      3.7980935412971952      3.8384279652628348      1.7899590078735506
    25   1      2.5897338743399234      5.0669035929550486      35.820004864210439
    26   1      3.7464041340475744      6.1799198965148534      1.7207527741431818
    27   1      2.4561756695533461      7.6015530577368535     0.18861441924231015
    28   1      3.6907193587414917      8.9510651715420142      1.9653363655866098
    29   1      2.5560810566175678      10.208381624417955    0.041073346626467305
    30   1      3.9796624488524523      11.508469720708426      2.0503741282970949
    31   1      2.5365858284941045      12.874981954413437      36.039186561592707
    32   1      3.9455921047901401      13.945197566749307      1.7671508267131122
    33   1      2.5874382866894985      15.216930721450954      36.052705721060484
    34   1      3.7710599870046755      16.508193411364307      1.5974508302261023
    35   1      2.5902602470307547      17.595091864813732    0.012904443898742119
    36   1       3.880562878705704      19.120690918030281      1.7956830210679882
    37   1      2.6574320364078607      20.317998173944986      36.047436256303364
    38   1      3.9266796791685445      21.556555369669749      1.6520689503948702
    39   1      2.5892038387897029      22.815203629851709       36.01700488675592
    40   1      4.0127688317447188      24.001056633428686       1.681653690327652
    41   1      5.1394103815447094   0.0032103898506118797      36.079367151876141
    42   1      6.0642809309679953      1.2836819512882971      2.0337369358967075
    43   1      5.1935997843374642        2.60451202873293     0.11578700563427441
    44   1      6.3292512175680073      4.0267086419541673      1.8496682468135517
    45   1       5.127260431088744      5.1358652675584517     0.15690845907329257
    46   1      6.3216355619654125       6.567224634736692      2.0877213712346481
    47   1      4.9714643173212698      7.6836006117491307    0.012162877226205645
    48   1      6.2087034340259972      8.9037464790410503      2.0163341461254602
    49   1      5.1257318313738054      10.128273416231195    0.035426102680696646
    50   1       6.374979231800574      11.308998207842594      2.0808768089405043
    51   1      5.1660640801704014      12.547905001912461    0.068827433328010668
    52   1      6.5175236319561582      14.002076280583397      1.7355814746282832
    53   1      4.9400858524187852      15.231221268981596      35.971079590241025
    54   1       6.268066101168202      16.492502160054602      1.6768690882682582
    55   1      5.1383849361647993      17.769676143539648      35.955654114818877
    56   1      6.4400774261282194      19.029833230914399       1.763324179985341
    57   1      5.1143838375012969      20.334859417305662      35.771042331265463
    58   1      6.4484601613908188      21.530749766005169       1.839275557648945
    59   1      5.0431022160768908      22.812208839419814       36.00418374730436
    60   1      6.5136831805398669       24.06219345973712       1.675049153340352
    61   1      7.4172434680433286       25.48579352210152      36.001649718112589
    62   1      8.7378993597845707      1.1747324774820502      1.6035674534864266
    63   1      7.6101652662982282      2.4688519407572236    0.080132432717550564
    64   1      8.7790851403498831       3.865907196865229      1.8701108680915002
    65   1      7.5602179667275182      5.2783844253768883     0.07529522027868997
    66   1      8.8291865812187176      6.4248144631384374      1.9209314942930285
    67   1      7.5099858946316633       7.759203121724541      35.951506187889208
    68   1      9.0335628033799509      8.8217055918872589      1.6097630215350474
    69   1      7.4257239634659333      10.302553734721821     0.10653131321373625
    70   1      8.8979716166292526      11.309499809494049      1.8438922924164218
    71   1      7.8878299965034282      12.760855544042371    0.083175047485940554
    72   1      9.0153363865326188      13.948979775422327      1.8556561760471015
    73   1      7.6298654045548258      15.350278168607423       0.129343822503347
    74   1      8.8493696260570971      16.628380207217106      1.8642232979553797
    75   1       7.814810928840429      17.782685206667011    0.068342109609102336
    76   1      9.1532001780402208      19.091946764645414      1.6824337627712458
    77   1      7.7667844889575006      20.419325222349492      35.987207738598407
    78   1      8.9082032485831739      21.549118555546002       1.642876812263331
    79   1      7.5530863781601756      22.829221943402572      35.934172140733892
    80   1      8.9235654004522242      24.138411644526371      1.3691701102629039
    81   1      10.303423110980097    0.079503695919164313      35.871157265775508
    82   1      11.462004301744797      1.2019392635870632      1.6453448575173297
    83   1      10.252935344332176       2.605606439384343      36.091442680176407
    84   1      11.488843918364392      4.0014671935791775      1.8165728889911166
    85   1      10.038970962066857      4.9721765257478898      36.032678668862921
    86   1       11.16747750173734      6.4365693493777094      1.9317456389283967
    87   1      10.229419935814022       7.504597929424345      36.029725386769599
    88   1      11.423048043676339      9.0608807732154339      2.0081078116025317
    89   1       10.25179796330278       10.26915571842863    0.027167009063430201
    90   1       11.32498500902102      11.598208790346854      1.8381795650108299
    91   1      10.050233960149342      12.883545032927522      36.031889319554132
    92   1      11.615926134622567      14.101570887632162      1.7777972845997974
    93   1      10.044635519885887      15.362163204643787     0.21438503710234039
    94   1      11.569505565684945      16.579674099425898      2.0237699687131445
    95   1       10.32784871577703      17.562324839662516     0.10729351887442809
    96   1      11.507255105883834      19.160271319897696       1.789692782739349
    97   1      10.197325861658859      20.387527593923078      36.043141172052309
    98   1      11.453422597812418      21.796866691077231        1.84515844664628
    99   1      10.390535505303321      22.756821789558693    0.039734829833594193
   100   1      11.291728924285719       24.31953991897181      1.5983993724222174
   101   1      12.727603278405313      25.391155614524642      35.931633829926717
   102   1      14.068001032703139      1.4233443835907282      1.3882207669649014
   103   1      12.902677873384548       2.861647187171231       35.99485267699513
   104   1       14.04966485073283      3.9562683936664143      1.6501972176285091
   105   1      12.636142305966594      5.0509802648066318     0.10098678874114729
   106   1      13.804185641553516      6.3806928449233071      1.7513747935455841
   107   1      12.570861190705438      7.5307647578732375     0.08223698751331758
   108   1       13.89829094356001      9.0279552158997554      1.8729314165877884
   109   1      12.767690251492054      10.355081143971576     0.19794397356662327
   110   1      13.997729049933357      11.656509989646818      1.9021799155981398
   111   1      12.670466961164278      12.837111918246135      36.017447614316609
   112   1       14.05315148243673      14.138930175139308      1.9812428202765087
   113   1      13.064732653019806      15.270173816004059    0.033622688064258444
   114   1       14.06217766046497      16.823473348881212      1.8258525198663402
   115   1      12.804690728913858      17.954767419562529      36.077346717444179
   116   1      14.174797738516213      19.258857835976777      1.9087146766364058
   117   1      12.935090799579195      20.536007176796751     0.14246694995609924
   118   1       14.23730993356488      21.843666029048585        1.78319104665868
   119   1      12.868976734503661      22.884180136642826      36.028213288221131
   120   1      13.913900873718903      24.365928467304968      1.4857403885374549
   121   1      15.299205918251394     0.22181087908906336      35.901247600124144
   122   1      16.513830400772292       1.350566760137625      1.5095044971346971
   123   1      15.402461602049177      2.8906752236225519      36.066055303140047
   124   1      16.875822929932387      4.1040894821088996      1.5118176264627425
   125   1      15.262961870163812      5.4296425642785646    0.068795941828511772
   126   1       16.56199973247087      6.3919396617001851      1.8051961165507457
   127   1      15.099472185819886      7.8138707319392422    0.042681201948619379
   128   1      16.607286482732327      9.0076817124671749      1.5898860630730738
   129   1        15.0699059075463       10.34855780411538     0.15944392347113318
   130   1      16.316707337836721      11.534728455678202      1.9433770579485201
   131   1      15.182235248987688      12.877525473067303    0.048867761061717245
   132   1       16.75046885144079      14.223021062012572      2.0159148005534471
   133   1       15.43671390353804      15.259011528013291     0.20524564593864611
   134   1      16.523853050935916      16.633967747927969      1.9021829041097129
   135   1      15.248151901887402      17.737548843010956    0.049898956731954061
   136   1      16.745959111167036      19.044541084778935      1.9185116943401579
   137   1      15.252283202622715      20.416528720313025     0.02925031712436521
   138   1      16.549576729850354      21.787381230217072      1.9011688155092763
   139   1      15.345283648404942      23.067163675656037    0.022091333299283641
   140   1       16.65927970771002      24.199173671142606      1.6369072144700925
   141   1      17.993822322038316     0.25578983744859174   0.0013042639352420335
   142   1      19.034731105184505      1.4130566731955869       1.848403983771119
   143   1      18.006762338161721      2.9270014611573161      35.864101548922172
   144   1      19.407212049678964      3.8588061432399532      1.8999080387066214
   145   1      17.925458475026158      5.4279918684081032      35.893271617471441
   146   1      18.892050655511305      6.5543478039781036      1.7698377214948218
   147   1      17.968410835432248      7.8282155551219077    0.032400522282171086
   148   1      19.180317472592169      9.2430006248118985       1.882813691263892
   149   1      17.923649528618984      10.163651441248623    0.072160030288398444
   150   1      19.055137227371961      11.632014141767469      1.9059858735838122
   151   1      17.681947732726265      12.792729467321637     0.28177870657185611
   152   1      19.114487365699318      14.061417343580365      1.8279645793565824
   153   1      17.941392733863417      15.469769317606794     0.11332542263876354
   154   1      19.264175384386292       16.50989261562091      1.8384078161046078
   155   1      17.891297207901413      18.019568428948613     0.03151894494764064
   156   1      19.181559446624767      19.028420635839176      1.7480325199216495
   157   1       17.65608615811642      20.636565961955672      36.098530788979964
   158   1      19.076360205187584      21.715409435820625      1.7635519247856692
   159   1      18.063369151789423      23.224966868654583    0.071702096526894202
   160   1      19.319879186609555      24.288931343589283      1.7801120344789396
   161   1      20.565082766266368     0.10866368323620923    0.048405863532582312
   162   1      21.607554411658562      1.3560257698113389      1.8208552656963763
   163   1      20.368710215462677      2.7061475317313972    0.076866750142482884
   164   1      21.753233508957805      3.9970079780041257      1.8788536757237022
   165   1      20.481420543139208      5.2884732392439213      36.068511104660217
   166   1      21.543098752619159      6.3852118426802269      1.9256582615956646
   167   1      20.416647275587366       7.639079983167651    0.027716025309564428
   168   1      21.622760597570235      8.6712321533883543      1.8023803055137375
   169   1      20.382296826020816      10.130517732246057      35.861916696917788
   170   1      21.742503348440252      11.398172232930058      1.7209629329750904
   171   1       20.32726297574639      12.577436190734145    0.010693186531875665
   172   1      21.617599206222536      13.936517083628509      1.6377191683514418
   173   1       20.52000184184271      15.330569411115251      36.018521692758632
   174   1      21.769209459194702      16.452617261403688      1.7928735222068224
   175   1      20.523954066536824      17.898968305522097      35.979203261028481
   176   1      21.759799142794975      19.228099249313193      1.8490998106595959
   177   1      20.209231792320125      20.475396239128724     0.14214977308363347
   178   1      21.908694707609385      21.873220044094644      1.8877474815457502
   179   1       20.58666040369793      22.979966233262619    0.043334418211941388
   180   1      21.804764586805103      24.362954559710204      1.7796851614839757
   181   1      23.055669770616447      25.349373236810425      35.855104174032114
   182   1      24.041683562017376      1.1586509321268592      1.8904966944179473
   183   1      22.933936265651841      2.5648485178382807      35.984633789678462
   184   1      24.254169684012091       3.581511596959198      1.8104423571544774
   185   1      23.154186010590408      4.9064179992756882    0.099312466240474045
   186   1      24.243498156181012      6.1365424001861957      1.9528317522971188
   187   1      22.918306103445474      7.3784966490614723     0.23702098476389896
   188   1      24.238043678403542      8.6023517250782984      1.9461841403145406
   189   1      23.053707027240279      9.9248907234486801    0.095087111668885921
   190   1      24.116254501064404      11.629600307009555      1.8876824576255335
   191   1       22.92851359330027      12.887894267860073    0.010681547647232028
   192   1      24.321951354012125      13.833459816226599      1.8061404594411217
   193   1      22.957105290505819      15.391710266702468     0.02045813632421415
   194   1      24.304612727552616      16.609065895596302      1.8327749842132015
   195   1      22.981671489868848       18.00088189225653     0.19693218231535631
   196   1      24.359019958833287      19.083094322894212      1.8131739392866848
   197   1      23.089461787044286      20.459497819341042    0.064071364671985945
   198   1      24.475327830551119      21.479883487214522       1.790170107790821
   199   1      23.199070365577086        23.0100384499417      35.998626916128821
   200   1      24.374221955671498      24.242532467369447      1.8465397934322831
   201   1      25.374110582912227      25.493230910457868       3.767546819326729
   202   1      1.4480024425749609      1.3764428012288077       5.568298443641968
   203   1    0.074884469146313207      2.4150696945286558      3.7701451440111118
   204   1      1.2745255166752381      3.7558574242139429      5.5719282021613603
   205   1       25.47719984987927      4.8424173360738294       3.589313934405423
   206   1      1.1280851456891943      6.0658519553471448      5.6403378427426674
   207   1      25.468307443970442      7.3478681166165103       3.551609197531342
   208   1      1.2038837238155002      8.8641550014562149      5.1364603042821066
   209   1      25.341047851878034      10.211441179790938      3.5410470102306482
   210   1      1.2637119230023131      11.369253849667412      5.4096269327154101
   211   1      25.388790245922348      12.642964516169384      3.5791016757375118
   212   1      1.2524853463111689      13.845409368424365      5.5714051937037805
   213   1      25.447004837959771      15.236703129114558      3.6376850189313021
   214   1      1.2579149253336412      16.519097720821573      5.3025912726506084
   215   1      25.511882141742298       17.90885876901784      3.8127684670839597
   216   1      1.2264649492870749      18.996787203472717      5.5349367497762767
   217   1     0.17186914288884142      20.542091194850247      3.7093369630375523
   218   1      1.4665032001447507      21.676890625893179      5.5876507807371079
   219   1    0.076551239663662493      22.976323097767647      3.5921757300891035
   220   1      1.2682934444746539      24.472459254475748      5.2918329883699746
   221   1      2.3078244155679242      25.475701082553087      3.5028844467201465
   222   1      3.7858741606407427      1.0561158378863127       5.471833455461935
   223   1      2.4309654384251109      2.4883778501975393      3.6613229627487156
   224   1      3.7604756241028996      3.6793842887421491       5.572045504099127
   225   1      2.3272225836817406      5.0289583797313853      3.7222992028313984
   226   1      3.8530338260830814      6.3529341173655638      5.4380134754900054
   227   1      2.5520071483383417      7.4147548704375934      3.5001954586079247
   228   1      3.7325863120515486      8.8863725956403528      5.0966926883902737
   229   1      2.3870230808393846      10.246127273674846      3.7007399107576875
   230   1      3.6151638352306477      11.556482517800431      5.4020647910708703
   231   1      2.5002400098977065      12.672606143722428       3.568787684594291
   232   1      3.7347801182437523      14.098105299845782      5.5994989819046337
   233   1      2.4968205185274948        15.2252570429534      3.5804304361653192
   234   1      3.9136764218862918      16.508735632749634      5.5320451980219287
   235   1      2.4560512648418911      17.793225129803975      3.4746328787436487
   236   1      3.8257461214307518      19.273863770327921      5.2890461153631492
   237   1      2.5526695890095632      20.347689180923656      3.7287068656504041
   238   1      3.7902432955528504      21.710078028034246      5.2464746596931873
   239   1      2.5278410188014875      22.837718813901809      3.5688874925323026
   240   1      3.8389828218261117      24.330910212796166      5.3164329631683742
   241   1      4.8914508231639546      25.487695260634315      3.5760466923723118
   242   1       6.546350901363124      1.2846985271431959      5.2396122933184754
   243   1      4.8254123407242595      2.6772038960168714      3.6793239524315973
   244   1      6.2912024314510253      3.7957971957698811      5.4670951483516221
   245   1      4.9747266023818817      5.0219865275970763      3.7310849118966964
   246   1      6.3816719077054413      6.4300198247507909      5.5356085768046137
   247   1      5.0369892098389943      7.7043083671323114      3.7101722261789059
   248   1      6.4262463101265999       9.008712933636227      5.4357818209851869
   249   1      5.0704529974849848      10.286156263960981      3.7566043901958053
   250   1      6.5503738954706234       11.62232454707388       5.580940408201581
   251   1      5.0210378970463969      12.758721021799397      3.7417885812266225
   252   1      6.3144637140880109      14.244304724440131      5.4197424409836588
   253   1      4.9015839939456267      15.265400479516373      3.6948224505645091
   254   1      6.3858576510612863      16.630361913062032      5.2994584463275682
   255   1      5.1283646036723392      17.784823879038171      3.5924561802089223
   256   1      6.3197914244519922      19.158887246736988       5.282387618056986
   257   1      5.3409823374098906      20.418983700046709      3.5030232777421588
   258   1      6.2914484914498816      21.724459822311399      5.2335315891044258
   259   1      5.0170436583132849      22.832339535555601      3.5508965398319998
   260   1      6.3737233445700809      24.369386127589578      5.3062415819365283
   261   1      7.7203559561556547    0.046704552592832245      3.3720409103408775
   262   1      9.1400883804990229      1.3289218209996889      5.1448552738048141
   263   1      7.7695488925121348      2.5908956086024411      3.4221741302346218
   264   1      8.8459470822934261      3.9341060617153256      5.2165796767766919
   265   1      7.4489703488777739      5.1785342712268596      3.7124259105291255
   266   1      9.0655701612021016      6.2394060181654343      5.4475808676262716
   267   1      7.5884266722477927      7.5150121528087883      3.7861123963146599
   268   1      8.8850897925446617      9.0161209878322985      5.4963373828633957
   269   1      7.6720618577053763      9.9949051494903003      3.8605020434945732
   270   1      9.0809319168536327      11.613669625889424      5.3454100885314215
   271   1      7.4561517204391015      12.668064441678784       3.594514799401952
   272   1      8.7021136416524083      13.998957512889247      5.4609307750148686
   273   1      7.7427187397017354      15.355839800977837      3.6574860652643282
   274   1      8.9146314995170854      16.550406900966653      5.4665075488860557
   275   1      7.7616315973257839      17.863892436734492      3.5732639597856739
   276   1      8.9219670991415221       19.08476621563084      5.3227859541908327
   277   1      7.7300353365571546      20.280616837084875      3.6472795930746487
   278   1      8.8697480473993906      21.488226612113674      5.1624599652605365
   279   1      7.4759878896838208       22.99218259140746       3.631195405829688
   280   1      8.9854117796662649      24.135479226355539      5.2396375761843377
   281   1      9.9369581356979992      25.298849154251567      3.3095231872443254
   282   1      11.629090821029823      1.1211548668223317      5.1976336652671584
   283   1      10.168139439937233      2.5758147390010206      3.4188011507785867
   284   1      11.378066745756742      3.6981869887541867      5.3058676716944966
   285   1      10.088828057556768      5.1355632096001695      3.6187336652610629
   286   1      11.432705558580297      6.1707988588279257      5.5451384339811884
   287   1      9.8736545656889358      7.7305625225194063      3.8047524193011641
   288   1      11.470750705350197      9.0417817503187461      5.3400751583725041
   289   1       10.03281076485856       10.21744323712562      3.5709139653025876
   290   1      11.421406274590808      11.456205210108104      5.2830644481041471
   291   1      10.252222417721969      12.773444394641031      3.5863929126891447
   292   1       11.31222302292125      13.992197620373862      5.6097048539730405
   293   1      10.239293744149256      15.125615954085172      3.6655881629387994
   294   1      11.272294372123927      16.635433445992877      5.3850213076331679
   295   1      10.354782416446563      17.640771662336231      3.4838088542150683
   296   1      11.612393102441828      19.216366053448262      5.2824651792892485
   297   1      10.203167131749163       20.37134459131325      3.4181723961394375
   298   1       11.31235074445652      21.634262520130164       5.146397961826108
   299   1      10.268058232009805      23.026119941928489      3.4848231502036255
   300   1      11.379805089187933       24.14546533654751      5.3125587907678637
   301   1      12.596596161756437      25.422660243226801      3.3198986160019444
   302   1      13.961656600972342      1.5474351548158891      5.0458572506130608
   303   1      12.779714892196841      2.7147342676528221      3.3394909998108684
   304   1      13.875756086538424      3.8746285103204636      5.5381232394869473
   305   1      12.580133335980644      5.1429982145673581      3.6406853074513901
   306   1      13.878932243049642      6.3435700962732691      5.5623501968768183
   307   1      12.445713754422608      7.8230431027354284       3.608883822513167
   308   1      13.935177509474265      8.7187422993579258      5.4906064775762884
   309   1      12.778866307599731      10.388613685454564      3.5297634628914909
   310   1      13.986734639303945      11.468698971610127      5.4724875549387955
   311   1       12.77858852346675      12.783727215324834      3.6484194346828507
   312   1      13.887975436752548      14.093124908709431      5.4354901700723053
   313   1      12.885463094991719      15.229264843657008      3.7047080470744671
   314   1      13.900116049048675      16.542239833407884      5.3346066863889128
   315   1      12.836451277568582      17.859070500324762      3.6502910604390353
   316   1       13.91623487246436      19.044597470754766      5.6466771487963348
   317   1      12.868358688716967      20.296039783434118      3.5501642461688658
   318   1      13.938911073031981      21.750793516464487      5.2226733022121206
   319   1      12.724658481794203      23.066078275765769      3.6664214032949185
   320   1      14.017772949536198      24.363010386168181      5.2599299036910843
   321   1      15.408378774274668     0.25327367716218213      3.2415349322533431
   322   1      16.612949068390467      1.2256101234790673      5.3446415293871548
   323   1       15.43497439274072      2.8178382458169793      3.2479990128493244
   324   1      16.185240568552448      3.7986513210843822      5.3800053030194457
   325   1      15.064563472381503      5.3597261596408901      3.6328924567583649
   326   1      16.638692276717876      6.3957363732874848      5.4590871904292291
   327   1      15.260433403114467      7.9213511679394131      3.3122877296494964
   328   1      16.439021978227309      9.1139558497394795      5.3174311826786873
   329   1      15.202074938895047      10.316172898597106      3.5293723566316189
   330   1      16.501156373563326      11.586546482530423      5.5184058835481506
   331   1      15.416500338442123      12.819259704967509       3.863927363321642
   332   1      16.797418143042933       14.12727707823146      5.4155692840550094
   333   1       15.33265326124422      15.364784589732171      3.6252273619821866
   334   1      16.710345766676369      16.572610383157805      5.5446489832255494
   335   1      15.337372724647205      18.030041081485404      3.8857738039355838
   336   1      16.622022173515923      19.233150971403472       5.605185867199852
   337   1      15.302254241487448      20.463076416894886      3.6307860968749557
   338   1      16.460643245747367      21.733439015691918      5.2372018878192721
   339   1      15.171008368285356      23.312807716058185      3.6043620818143856
   340   1      16.551944255235039      24.277111015036617      5.3711944158165545
   341   1      17.751413232509719      0.1307719971342384      3.5517811975400613
   342   1      19.023591029379435      1.2978623594671252      5.3087530084005365
   343   1      17.853013234543536      2.7589987610520512      3.7187846979206842
   344   1      18.970039297724625      4.1250907028635275      5.4695497304426004
   345   1      17.862001605639477      5.3942208367872411      3.6889968549692087
   346   1      19.145169427237629      6.4689903544924512      5.5622949703462261
   347   1      17.557668570018915      7.9327325279248235      3.6384564695540194
   348   1      19.019461019102852      8.9005404175934242      5.3067108280034168
   349   1      17.653599340204373      10.363525580576798      3.6927023096231362
   350   1      19.021672423300402      11.574747299344462      5.6339333823735043
   351   1      17.956017276606467       12.68642165279455      3.7097504796785752
   352   1      19.229483678941023      13.932698168854385      5.3650976584314058
   353   1      18.042479796576291      15.340914624667446       3.678384087510882
   354   1      19.316052578521813      16.706891013900549      5.4677922622185902
   355   1      17.872568853373291      17.674257094509141      3.6159995873877362
   356   1      19.255463778708084      19.146867121863391      5.3212383970673498
   357   1      17.967668431546556       20.38051524715576      3.4987148133005808
   358   1      18.971079171648434      21.613891032407718      5.3496872144289931
   359   1      18.028604555239742      23.014277435091358      3.4473476110861494