dump/Cu_720_0/steps_81 (written by ASE) 

2000 	 atoms 
1  atom types
0.0      25.526554800834361  xlo xhi
0.0              25.5265548  ylo yhi
0.0      36.100000000000001  zlo zhi


Atoms 

     1   1    0.052636062811589564     0.12539022849521891      35.917173218094874
     2   1      1.5022247136894356      1.1746800212859145      1.9082902356213358
     3   1    0.023170632412119592      2.4868658985160859      35.869400371669194
     4   1      1.2720521467303556      3.7590655222998604      1.8321402577056471
     5   1     0.10390990085248401      4.8414401340199538    0.053173698924013149
     6   1      1.3910417671321633       6.168806872097651       1.894861687997013
     7   1     0.19401147378921196      7.1867904498144961     0.22273115702880666
     8   1      1.2636408264804366      8.9349980572931944      1.7086869063671071
     9   1     0.18325538514806292      10.469666201609231     0.18410664089990419
    10   1      1.4337815770856859      11.548076733132868       1.811250127809934
    11   1     0.11257431211849835       12.74117365802616      36.037536174745675
    12   1      1.4459196750717755      14.126884003196482      1.6402965611630635
    13   1      25.434499902316009       15.23674916669502      35.906100289861861
    14   1      1.1803015878736589      16.585552094172701      1.8397272326822298
    15   1    0.022924241500217685      17.680899373750051    0.043475186518571636
    16   1      1.3124980951802756      19.185203503773472      1.5160375128122385
    17   1    0.039237340553825335      20.521915600417145      35.990830188658542
    18   1      1.4831759725527587      21.671733643146322      1.5335444820596751
    19   1      25.457735832337416       23.04084550628701    0.059569373090994311
    20   1      1.4189831198636251      24.113563135292836      1.7682722925321754
    21   1      2.6900251474235843    0.053001725624340405     0.07702002247694964
    22   1      3.9686998704347074       1.264842639322902      1.9315894296667251
    23   1      2.5288929903357027      2.4864824104641605      36.069467457884549
    24   1      3.9975912077346991      3.7060417513244581      1.8825920442538051
    25   1      2.6778948653241583      4.9773396371392478     0.08603483667765191
    26   1      4.1740529033280431      6.2885902226706936      1.7500995841804066
    27   1      2.5849138576714612      7.5087851593378838     0.24386819228260501
    28   1      3.9132992338294179      8.9200073475165631      1.8048514109162863
    29   1      2.7121295025571501      10.100236156727121   0.0063576657711791971
    30   1      3.9726830768676979      11.422610685010161      1.8285602447967328
    31   1      2.5622320308012787      12.560405445894634    0.045734223724752936
    32   1      3.8207791973799807       14.15514795409681      1.9273423361110653
    33   1      2.2242142679946113      15.587992867143715      35.935193500926481
    34   1      4.0369180518445829      16.627707649976575      1.7455341271558613
    35   1      2.4407431390064955      17.967023593070174      35.886442552590317
    36   1      3.8127610643460526      18.995545747508253      1.7292252599788511
    37   1       2.590468001510577      20.437245024854104      35.998290194083346
    38   1      3.8428188155567589      21.718104567271659      1.9392531640175226
    39   1      2.6958778251455788      23.107879214825466      36.028621270182455
    40   1      3.9339145222081719      24.263164011945538      2.0055391531747988
    41   1      5.1780059609741329      25.454184483585561   0.0080794858684612187
    42   1      6.4788417381514538      1.4511887975469719      1.8015618171007874
    43   1      5.0419618657044225      2.4778353838375775    0.051631650546437556
    44   1      6.4612254849014379      3.8174151855006566      1.8664709646683049
    45   1      5.4105339876124328      5.1827268024065232    0.072402848177330226
    46   1       6.577189345973844      6.3123151895369389      2.1061278896397209
    47   1      5.0768984623372244      7.7222310333430695     0.20974564556847788
    48   1      6.4816639007412418      9.0134680202319277      1.7888130569056448
    49   1      5.2712296843166886      10.330401714301903    0.011693330366085787
    50   1      6.4967951006750937      11.334254891729868      1.9706643407699418
    51   1      4.9526157486351998      12.837387293122667    0.077542965954398843
    52   1        6.38208293899888      14.071710869380334      1.8289958035461742
    53   1      5.0338759864532019      15.314089897566104      36.028725088769171
    54   1       6.626480247257815      16.547156076700201      1.8601067615131783
    55   1      5.1905132366303635      17.786426584552888      35.995934017715058
    56   1      6.5047740403331966      19.261153382270251      2.0136627060187826
    57   1      5.0645078648216657      20.494649830047219    0.089698752043455052
    58   1      6.1495631823487118      21.812401315430527      1.8999833413487845
    59   1      4.9681726076077561      23.193648500463144     0.16921953596863648
    60   1      6.2776006702012408      24.387837721844665       1.946942523954829
    61   1      7.6390396620763337      0.2218429730031799     0.11867266221755701
    62   1      8.9293471044663786      1.2841503361651021      1.9365319742373328
    63   1      7.7670158416083188      2.7192148526547499    0.096355940504520399
    64   1      8.9243996304289421      3.8180827651069298       1.807177754740235
    65   1      7.9776870764173884      5.1346147925040144    0.063377698265219426
    66   1      9.2523355990878855      6.4690910715196539      1.8820334952747304
    67   1      7.8105674413775139      7.5088972781056498     0.21368937743110322
    68   1      8.9912702471333041       8.968152760486829      1.9640825185604056
    69   1      7.8801735334025027      10.136196445408492      36.098870066616563
    70   1      9.0615211141922742      11.475056233336241      2.1598253546946817
    71   1      7.2603526024439509      12.968651935859246    0.040419110631012167
    72   1      8.7320367379233961      14.201235770068228      1.7569630336421389
    73   1       7.642242696735269       15.25497432469192      35.935178626057443
    74   1      9.0843403119077628      16.615779551454626      1.7932201936165271
    75   1      7.7561180382974904      17.802213657583298     0.10789147866365723
    76   1       9.021122865259267      19.305750093368612      1.9206706922481873
    77   1      7.7867820778695025      20.716400051054052    0.062191995276816674
    78   1       9.075583210656033      21.981500575241515      1.9232309875853839
    79   1      7.4397516320785302       23.30666051809035     0.30034142204943903
    80   1       8.890853699140278      24.359410750074407       1.746685739033115
    81   1      10.016052645102425      25.388752917116104      36.080768038973851
    82   1      11.407598992228309     0.98992766468279181      1.8153122006276028
    83   1      10.146719147642735      2.6613834405027825     0.13060066909345094
    84   1      11.450015977871102      4.0264380074445505       1.764415240199152
    85   1      10.327612302395131      5.1307449499186104   0.0087423036821860645
    86   1      11.750856498861292      6.4611282733714903      1.7069491484812707
    87   1      10.222781691438115      7.6341879131800079      35.998679973819733
    88   1      11.481617114424235      9.0008872469118657      1.6147849879580471
    89   1      10.261678796096659      10.445825700850813      0.1458625897080422
    90   1      11.540057924743774      11.420586800073091      1.8805288360507131
    91   1      10.154066163021666      12.874132605467215    0.053617724051741637
    92   1      11.334841839579283      14.057337026569911      1.9737836386379382
    93   1      10.337569992885408      15.326892739767063    0.073396938873850015
    94   1      11.561529066294414       16.66086764477836      1.7720882681947381
    95   1      10.180364273247262      18.117467812623886      36.026103836996022
    96   1      11.416094477976202       19.18145040122619      1.8360334731923895
    97   1      10.184578609762514      20.436827442223404     0.12360565740081042
    98   1      11.421675860949868      21.716960502244397      1.8356288470221886
    99   1       10.34147574621764      22.990899011103505      36.070440115598309
   100   1      11.480801681427893      24.173806227672252      1.7053124920661618
   101   1      12.650293130653075    0.039429130503180906      35.878780184576833
   102   1      13.789774594687435      1.5943269037395666      1.8604821617878753
   103   1      12.570630804756709      2.5575266398603738     0.15526919419399995
   104   1      14.182299337544391      3.8668037164472886       1.739948987157117
   105   1      12.954600387175233      5.0324794266160735      35.963848895609864
   106   1      14.179785085147472      6.3777994358520766      1.8576154849769764
   107   1      12.930813606967144      7.5552726260557392      36.081577840273873
   108   1       14.27510551659792      8.7610156579071319      1.5849091583884156
   109   1      12.807552900852869      10.169079070429575      36.057907561608566
   110   1      14.060688537956306      11.311297964490128      1.8693797630316924
   111   1      12.504717178433951      13.006476355371499      35.938095523574979
   112   1      14.046527261840678      14.228852532772017      1.8755923610013392
   113   1      12.654254057160777       15.43618276030824     0.20019346991375631
   114   1      14.292566584171892      16.753110147307993      1.8556078963413483
   115   1      12.831217424942409      18.029995615463292      0.1542016935981905
   116   1       14.03840444239292      19.165933196200054      2.0079482713343633
   117   1      12.787967710054271      20.500406659604948    0.050418911730662479
   118   1      14.001867946784344      21.751188008997655      1.8217489990561271
   119   1      12.924106708687566      23.139299879191324    0.068414486113726899
   120   1      13.995920344252735      24.347086165717094      1.8519405528333333
   121   1       15.15604889858901    0.061379381286584371     0.20511152681150416
   122   1        16.5824146195853      1.4464917045722656      1.6902129358664197
   123   1      15.309648693070159      2.6489035496635784     0.10027933199293089
   124   1      16.684242884965542      4.0346708717768678      1.4903542113224133
   125   1      15.359786886510403      5.0813230774824669      35.941493927451212
   126   1      16.744592695201504      6.5253613107282709      1.8457234837191214
   127   1       15.56506523680159      7.4956519926285452    0.062651988079119328
   128   1      16.747202696649374      9.0518875778928276      1.8548066267773264
   129   1      15.457689151196945      10.231190998677448      36.059383621164493
   130   1      16.568290414724952      11.574081036178868      1.5167316436301692
   131   1      14.984322825323389      12.700558925704813      36.011675607328186
   132   1       16.50616355125069      13.936383465031003      1.6417649001327175
   133   1      15.089053848573641       15.41750294623723      36.085830596957145
   134   1      16.567068866636269      16.641744783944642      1.6566703782347312
   135   1      15.265718882904228      17.943106080665402      36.064055511829068
   136   1      16.644632493902698      19.368088981044501      1.8742694507432127
   137   1       15.28784307043175      20.438086937197813      36.042227650778763
   138   1      16.449893001528491      21.889449233661303      2.1740771944969892
   139   1      15.163037288662537       22.89730516857848     0.14199347724608066
   140   1      16.856806582275123      24.237779220700581       1.990919984567769
   141   1      17.736707418306846    0.034640503863729251     0.17043001385497974
   142   1      19.174708615131973      1.3510452957638952      1.8357190733967386
   143   1      17.851266006113697      2.5955168426793436     0.10794977337864133
   144   1      19.125740755123456      3.8862494958903753      1.7394342149817494
   145   1       18.01322815753014      5.2947210063629395      36.016989061788934
   146   1      19.155059584717204      6.5247237497050792       1.975538365515412
   147   1      18.041498349637049      7.9424220918307329      36.055711812495687
   148   1      19.222086055853811      8.9874576449337429      1.8772759134758741
   149   1      17.991837657506526      10.208238597887018      36.085248188480016
   150   1      19.014066002104165      11.383544546025936      1.8466889804481412
   151   1      17.813377035948172      12.712038098690448       35.95114571006642
   152   1      18.962450447347475      14.126962899574183      1.8967925440376481
   153   1       17.67125714355987        15.3950421212088      36.017315265659043
   154   1      19.270902008761258      16.518243522136618      1.7381739869006756
   155   1      17.891777012633288      18.200404574324775      36.068708141110584
   156   1      19.242219065975828      19.201965623654026      1.7191897970734997
   157   1      17.846825245200861      20.499490382010961     0.08617519846548026
   158   1      19.267086286789514      21.810834062390782      1.9569562068064321
   159   1      17.898672495323993      23.133505184913112    0.087680743550163309
   160   1      19.247015328143604      24.310437845712592      1.8941227032269574
   161   1      20.218823269587602    0.060107468177990953    0.059733450723297096
   162   1      21.621812572019287      1.3916569193169102      2.1056740919932069
   163   1        20.4325560585829      2.5069429462046826     0.11767442999685059
   164   1       21.82048931272109      3.9072755173344524      1.9215935336010039
   165   1      20.395676732191188      5.2100838267751284     0.31360701182732109
   166   1      21.828470522552792      6.2972465098160946      1.7352206259676923
   167   1      20.522068389812169      7.6366449476838811     0.23447370476319521
   168   1       21.84995511570683      8.7935606974483722      2.0936521484440265
   169   1      20.328209341900198      10.236822651539306      0.1139870333314888
   170   1      21.530237742462923      11.296371032652731      1.8678181257150412
   171   1      20.404270600785491       12.78477542485458     0.12524882515527905
   172   1      21.687442106256626       14.17021989815818      1.7620297345675797
   173   1      20.341230905643776      15.217224399686526     0.10842982801024177
   174   1      21.610729843633649       16.60242174385322      1.7758820733933263
   175   1      20.454444119684503      18.068047487360364        35.9600778159705
   176   1      21.626990437876255      18.998028139735265      1.8617044512017171
   177   1      20.355959743179984      20.664742480193805    0.038444000427091243
   178   1      21.806976699272916      21.698258535667676      1.6086400269447623
   179   1      20.394264474355435      23.104899919498507    0.093355445482814173
   180   1      21.716511680501025      24.294704096293163      1.7389506102178183
   181   1      22.916777753659421     0.16563026577462092     0.13622625648999942
   182   1      24.441590718265768      1.3825439966204949      1.8577279709112973
   183   1      22.860980030529785      2.6048407572594088    0.041818090865706294
   184   1      24.282839786478434      3.7791964399826661      1.9184877142617445
   185   1      22.800306472817319      5.0127697373622695      36.088826783461094
   186   1      24.292492318155933       6.360867980007253      1.9683962681609268
   187   1      23.232250288433626      7.7552731827976444     0.14270931452313113
   188   1      24.370435255585278      8.8239157355227622      1.8336216273816281
   189   1      23.149884435178802      10.247325528459751     0.12053151479937009
   190   1      24.357021480974154      11.427891593708443       1.804813015606942
   191   1      22.926574516963296      12.583893710661499     0.17628811835489827
   192   1      24.339073090434518      14.018630494199133      1.6905744248314722
   193   1      22.952979906502726      15.438232403623196      36.038945404284171
   194   1      24.206080238119171      16.527293337237342      1.7236610035600071
   195   1      23.031479478825865      17.761463348877321      36.069089581320092
   196   1       24.17760656427442      18.996608386847157      1.7374863794306845
   197   1      22.987725303066654      20.348739923734023      36.095502521726992
   198   1      24.233621661105602      21.621741788381488      1.8227962311075874
   199   1      22.974446609941939        23.0343115275274      36.041442907955265
   200   1      24.198081500862482      24.307491777668552      1.7458930297121369
   201   1    0.032406210970867898      25.311912368739783      3.4266931227330031
   202   1      1.4073599108976154      1.3419306735323102       5.376385183791732
   203   1    0.077491637121427898      2.6826886478808984      3.6384545099390198
   204   1      1.4155535754089743      3.7038061168176513      5.4747327111276496
   205   1     0.10238055892219955      4.8713297728903351      3.8779810262667227
   206   1       1.399162796794422      6.3990446433871426      5.2586823520631967
   207   1     0.26236164544829943      7.6508127989939219      3.7155440927851129
   208   1      1.4103623080115963      8.9655880471491063      5.4665424588092675
   209   1     0.20524666147770285      10.077980431218485       3.653018132359803
   210   1      1.2339822429872416      11.464941102200381      5.3937762533105289
   211   1      25.323370994406051      12.703377766807122      3.5225025501486034
   212   1      1.3188826542269074      13.993952866242301      5.0837116384832406
   213   1    0.090411296871354171      15.124984734515479       3.544727931623437
   214   1      1.4070486182485826      16.737243001171805      5.5079083136652747
   215   1       25.50469175118242      17.895980111945832      3.4637870431251501
   216   1      1.2839001438172908      19.147833069597073      5.4027252101273433
   217   1      25.484771410267086      20.399333874701821      3.5771260605698685
   218   1       1.163306139950874      21.632989334636672      5.5429822210544266
   219   1     0.14775062281008489      22.804707486292749      3.5064231849729581
   220   1      1.5623747025395605      24.173274138155765       5.355840584872162
   221   1       2.677670697367752    0.098807445174808009      3.7725479949880407
   222   1      3.8886379378708957      1.3863311950495585      5.5786728320279817
   223   1      2.5074275339031011      2.7488894232916814      3.7877038518543986
   224   1      3.9056081980048911      4.0012889497395392      5.3772264555865048
   225   1      2.5684215743075898      5.0989308303310548      3.5551514539127549
   226   1      3.9649579010069531      6.4375039511934586      5.0527579190192151
   227   1      2.6443623437160966      7.7346605616725812       3.402053781859081
   228   1      3.8313790747810113      8.8698198025902553      5.5909002497530746
   229   1      2.5647025629174642      10.237968184284426      3.6173146264352014
   230   1      3.5767052443007312      11.301827072330447       5.483519370898323
   231   1      2.5297442414225673      12.628142656759778      3.6094243352676809
   232   1      3.8202750500939282      14.134181749412315      5.3970541708161539
   233   1       2.516018902552418      15.438897039952455      3.5519167691802411
   234   1      3.9304035109114412      16.554718600153212      5.5346886113182698
   235   1      2.5378755309420384      17.976060932100523      3.4976961793001919
   236   1      3.5456276250495504      18.829037594366117      5.3566022097747128
   237   1      2.4712852787599902      20.517061673791627      3.5926432170506697
   238   1      3.6453390984319514      21.642167368759534       5.344308922620205
   239   1      2.6268060690372179      23.011583424405583      3.6051311921714042
   240   1      3.9873392045720766      24.212322245652139      5.7444744416142965
   241   1      4.9215269333627747    0.096798371963176422       3.974306984540303
   242   1      6.4563468359353813      1.4483554459589798      5.5366666438962708
   243   1      5.2776047942935991      2.3584876171177771      3.8499475002921364
   244   1      6.4465925183798891      3.7426813852124696      5.5147043575636161
   245   1      5.4936054519767872      4.9258598402562201      3.7553075954176749
   246   1      6.6737283948772435      6.3345178839421319      5.3657123343220565
   247   1       5.393418565544331      7.6775079054374675       3.729261749516819
   248   1      6.4590007075859637      9.0996076310182481      5.5489467049567063
   249   1      4.9943736464738251      10.182474352932967      3.7069045683194162
   250   1      6.3280850092257044      11.518136631589121      5.2568400240118445
   251   1      5.1110480851868605      12.835372668095005      3.6489452330507728
   252   1      6.4601130992444116      14.233635548080526      5.4146316219333714
   253   1      5.0147308006946432      15.227839641481696      3.6339768158963981
   254   1      6.2366448007713613      16.465165218960756       5.382737444149865
   255   1      4.9754524953668007      17.850325963850153      3.6782850507199809
   256   1      6.4056035181074904      19.081018536415005      5.4350217971721078
   257   1      5.0195439950688057      20.492338600025349      3.6037950149793589
   258   1      6.5260556005807704      21.758858133454865      5.4137252833921403
   259   1      5.2226549779999001      22.994677340550279      3.8265354323851728
   260   1      6.5968835295367212      24.466844528219308      5.4807739426992717
   261   1       7.551148229501675       0.353437319236243      3.6769146450075736
   262   1      9.1283471631147801      1.4910301635916414      5.4704518621265379
   263   1      7.8173539900120605      2.7727999684862419      3.6907646434075745
   264   1      9.0085940843667931      3.9508145798134033      5.5081546209336318
   265   1      8.0094931283186046      5.2355758139120887      3.6206308716557274
   266   1      9.3222460376755958      6.5193455082495415      5.6458838104899769
   267   1      7.9248378197550489      7.8058575608601677      3.6553678826040978
   268   1       9.001761935055768      8.8853558225893821      5.5815751780032228
   269   1      7.9497931374976574      10.269013201195856      3.8975342355669609
   270   1      9.1807681944820096      11.530859405820904      5.5322797023156864
   271   1      7.9416740177999072      12.789576910287467      3.5971970404848541
   272   1      9.0270481076591889      14.228609519649861      5.5255273722355289
   273   1      7.6552086244087452      15.305437972841299        3.73004316133997
   274   1      8.9097865776540459      16.709144133703546      5.5099259115110462
   275   1      7.5379608468462864       18.02520135342343      3.6466729953148955
   276   1      8.7829074361902943      19.521274356410956      5.6720555705089648
   277   1      7.8478593398856411      20.856103105896626      3.5030515137340901
   278   1       9.072004058471272      21.922133147048633      5.5515225428540536
   279   1      7.6872984511770204      23.428963554801285      3.5528974834004443
   280   1      9.0406620358025336      24.485746286296713      5.2671224480293999
   281   1      10.109385236250617      25.491321974177303      3.6312571508490148
   282   1      11.491779734322952      1.3615382570256884      5.3593605219586786
   283   1      10.239354428016062      2.5534690757225107      3.4418351266663763
   284   1      11.517029989635605      3.6362661202386604      5.5528097123683153
   285   1      10.413638106054117      5.0029829909112653      3.8765548618867651
   286   1       11.69619888883096      6.3126754524510016      5.4968194104811232
   287   1      10.369688039112491      7.6803019350402435      3.6717398296080286
   288   1      11.451951702974853      8.8255132766138313       5.409355131466552
   289   1      10.478084552684615      10.111648548572434       3.751565920066501
   290   1      11.734868323147497      11.908433604384433      5.4502897877060512
   291   1      10.347171939470153      12.847536357040259      3.5617015968153063
   292   1      11.618513146618296      14.323862284343379      5.4778353553298267
   293   1      10.203632899412746      15.555840272060436      3.6808412788088871
   294   1       11.56802387225672      16.703134781292729      5.3603071697169504
   295   1      10.058505913677662      18.141244342820592       3.712242385159132
   296   1      11.389699029729087      19.158560434930944      5.5266308330580767
   297   1      10.233999696762069      20.654228542129935      3.6264269080373603
   298   1       11.71416995347621      21.642451880188762      5.4482948606011119
   299   1      10.154109190758319        23.2302814188401      3.6997642883278892
   300   1       11.38674723268238      24.253729551639022      5.4502919380916826
   301   1      12.576842451828869      25.505996512280305      3.6840951807192628
   302   1      13.775135376269143      1.3017478293944549       5.390988441828573
   303   1      12.652272013025724      2.5727698164605566      3.4499721201295772
   304   1      14.001572540878369      3.9173849542485897      5.1719600394845973
   305   1      12.902637089909229      5.4391324959938228      3.5621583059805761
   306   1      14.045785464329049      6.5316916758410182      5.4375198378147775
   307   1      12.942430112488715       7.915523701974295      3.3958953959288478
   308   1       13.78829497740284      8.9706292872866591      5.4989796282205514
   309   1      12.882928819688114      10.413582418167392      3.6781748995682606
   310   1      14.090420843696275      11.560268466596565      5.3684815680523723
   311   1      12.775351321495377       12.85778537503467       3.345514843925026
   312   1       14.17526816588178      13.862987177188025      5.0980723379688957
   313   1      12.871628284272216      15.391590733912883      3.5058369737092678
   314   1      14.268707161615838      16.450173014486047       5.218081094976478
   315   1      12.714534248729485      17.722877540708453       3.611338081394369
   316   1      14.028042463106273      18.844849395921159      5.4002311589028933
   317   1      12.746486112301021      20.391362425836171      3.7182249588936473
   318   1      14.009054806369223      21.859644653221341      5.4158421921413114
   319   1      12.741204096735157       23.00884290659905      3.4328497116688954
   320   1      14.130324116180534      24.512405988862739      5.3741342520333362
   321   1      15.293289424556084      25.438148177235124      3.5376352759178311
   322   1      16.598540445633422      1.3788759680120914       5.186956635025834
   323   1      15.249595627326283      2.5480799259881568      3.5681317761883973
   324   1      16.577755323806429      4.0167347829250097      5.4483924779579533
   325   1       15.58820492556981      5.1197525800487034      3.6443086659508754
   326   1      16.644179804263764      6.5002024039285748        5.44914104899477
   327   1      15.453418146178402      7.7147302127013999      3.5331151504430283
   328   1      16.491875912311475      9.0136125102437248      5.4034271427105383
   329   1      15.289129968819035      10.135434505977834      3.4264824939535075
   330   1      16.340869012955618      11.552237265181724      5.4787443417755872
   331   1      15.447432525048857      12.795733789142346      3.4101989499199461
   332   1      16.691668215619039      14.075521762249569      5.3790875434799892
   333   1      15.402225011532977      15.108110352065584      3.5702200012053016
   334   1      16.611713400197633      16.479771367737008      5.3337620541284601
   335   1      15.608303515217608      17.940166639275091      3.5156694820122989
   336   1      16.472978989639028      18.945715406128969       5.631888456144071
   337   1      15.355195627747085      20.287525106824749       3.706846093213036
   338   1      16.516457663798594      21.586711702047918      5.2968426056988243
   339   1      15.252096285241116       23.11987910261367       3.653958701961797
   340   1      16.566217322589157      24.239721637071774      5.5003353037496785
   341   1      17.868340400538095     0.11217662648023541      3.7736752161639644
   342   1      19.093486545427524      1.4063923906860081      5.4497916078320765
   343   1      17.955124694607647      2.8265906278979385      3.6247227652245866
   344   1      19.250123068102667      3.9772289330943722       5.413541370300095
   345   1      17.930436013942778      5.1395579612269104      3.7561236087166869
   346   1      19.384538446512387      6.5645890958341422       5.500360493025747
   347   1      17.969860484855538      7.6061341582459061      3.6959433690778933
   348   1      18.918065773548197       9.016129290764308      5.3779574216118826
   349   1      17.878916410746722       10.21107160691319      3.6231710901836713
   350   1       19.08291352841669      11.486778314608081      5.2995570874508804
   351   1      17.786327090951296      12.701909148989088      3.5533056088573423
   352   1      19.171292047658977      14.149088342474153      5.0889884085045578
   353   1      17.845219217920114      15.566709615162324      3.6368333570212767
   354   1      19.070592657663283      16.463660362332799       5.331251294538851
   355   1      18.049050103908822      17.836738246921289      3.4889874122454207
   356   1      18.987893260752877       19.04307412717354      5.5306457392743873
   357   1      17.841074436619103      20.301722768467901      3.6017354289354548
   358   1      19.216123553447474      21.745524898477946      5.4739818922411585
   359   1      18.075364497205246      23.057693850399879      3.8753638724466164