dump/Cu_720_0/steps_41 (written by ASE) 

2000 	 atoms 
1  atom types
0.0      25.526554800834361  xlo xhi
0.0              25.5265548  ylo yhi
0.0      36.100000000000001  zlo zhi


Atoms 

     1   1      25.414512479065554      25.286195173653454     0.17157212715767403
     2   1      1.2038148605910688       1.414553497172403      1.9825274167326137
     3   1    0.047736301283452055      2.5268205127186323       36.00644296854226
     4   1      1.2844696765862085      3.9746081156030963      1.6012167197409446
     5   1     0.22830358836568854      5.2475456435857426      35.809813786441524
     6   1      1.3578487779374793      6.4158520660910652      1.6427052491888612
     7   1      25.385008828257874       7.676005556703184    0.033629888128189109
     8   1      1.2621105046321772      8.9115498391638006      1.9659333003165904
     9   1     0.25920197370504455      10.221140828390228      36.099738950322283
    10   1      1.3214245393495592      11.373051673905877      2.1233018143117657
    11   1     0.10819803876459066      12.718236057884138     0.16866751587392642
    12   1      1.4847656134067453      14.049138826154683      1.9411143355565641
    13   1     0.19093467429922964      15.191561690521961   0.0011149174033107552
    14   1      1.2803025035184386      16.640477332895067      1.8891675438097413
    15   1      25.478681318427491      17.824936011870037      35.899449759293283
    16   1      1.1449484670426453      19.166654326646505      1.8240163916822896
    17   1      25.252060054144117      20.388564591566187      36.065964481300327
    18   1      1.1071856821456154      21.741441107071989      1.9783770317189577
    19   1     0.11592792387082769      22.730593560916709    0.031906610272835693
    20   1      1.1881592642133014      24.320361526255795      1.8132933610140631
    21   1      2.4866951082965096       25.46944820812389     0.24021915847140457
    22   1      3.9627243013651876      1.2328827919425061      1.9291815945785404
    23   1      2.5698347272232893       2.360067052263541      36.029065663903047
    24   1      3.8494437270456854      3.7673263018185947      1.9266086051816029
    25   1      2.7870459311112481      5.0572141402057218      35.974657276513945
    26   1      3.6907087337765674      6.4365678666360431      2.0011102075789036
    27   1      2.5502591620831465      7.8970336356901782    0.044643058130099965
    28   1      3.9178047355645558      8.8838770769479503      1.8699641165029777
    29   1      2.7600183035136472      10.289313494713978      36.045333665682243
    30   1      4.0354667265696085      11.327164332231348       1.752848128602261
    31   1      2.6777009665500771       12.63801104416325    0.041339722799568719
    32   1      3.9638973786838885       13.94414826898899      1.8920231510396222
    33   1      2.5981727449500394       15.33679740605462    0.016765342733094706
    34   1      3.8488527224342204        16.4510949890355      1.9421775412827853
    35   1      2.4546299248607637      17.864065887512108       36.02976299374594
    36   1      3.6202423865579418      19.151767284205686      1.9001769678770637
    37   1      2.2873720446945027      20.422320536670941      36.047942050933379
    38   1      3.6355558383006081      21.754855276588451      1.6117352589095155
    39   1      2.2719554484840487      22.897268592839598      35.981828682644071
    40   1      3.7471518395330987      24.186125411281765      1.6589771640891049
    41   1      5.1706715613520613      25.466589480232486     0.11122534031728722
    42   1      6.3531142788007644      1.1999384176427215      1.7915061521374254
    43   1      4.9650718467833972      2.5099767517840261     0.16173309733712801
    44   1      6.5011048174392982      3.7425664530888412      1.6220582588446164
    45   1       5.338766522554109       5.144085270572563     0.12358349653630973
    46   1      6.2455471834832199       6.449620172114118      1.9866358814257621
    47   1      5.0549872969297427      7.7353227323211771    0.077585062299533422
    48   1      6.4112867374283899      9.0298374074971157       1.748511356847793
    49   1       5.389370098471054      10.112252120900452      35.921911360314979
    50   1      6.6121100774721375      11.463935790790845      1.9429191420398282
    51   1      5.1415373113199507      12.606620520117836      35.997447963684884
    52   1      6.5830638972639246      13.838204242551265      1.6590080915505383
    53   1        5.16380642438771      15.020491061992784       36.07541207505799
    54   1      6.5312623568002133       16.47568894551906      1.5936100234230812
    55   1       5.009977385858595      17.821080786225593     0.14341387096087604
    56   1      6.3620669634975071      19.205137622117341      1.8554099235848427
    57   1      5.0734582518016342      20.284510754509007       35.99253610430894
    58   1      6.3339898581728784      21.652718528160221      1.8244003370271902
    59   1      5.2654692640439693      22.868456888077045      36.099056036884093
    60   1      6.3101964867680875      24.113823723354979      1.7372788533550976
    61   1      7.5163553350250778     0.20267582069601006    0.023020779634589403
    62   1      8.8750326591735753       1.330448146051566      2.0577423834969304
    63   1      7.6315609713391233      2.5054858264805278      36.025015170739721
    64   1      8.8497096522456218      3.8267908253620719        2.18906643010747
    65   1      7.7892925333476715       5.121362889323045     0.18267990953514765
    66   1      8.8316822544705857      6.3266995633995782      1.8311418407965692
    67   1      7.8001666816598538      7.5426259780048204      35.970106363178495
    68   1      8.9233621712028945      8.8061445159329068      1.8381946530916937
    69   1       7.682928790718309      10.147663032298947      36.070035355357589
    70   1      9.1451000470776105      11.352866852832276      1.7953341326139376
    71   1      7.8970150270341817      12.565826784869074      35.961056990835019
    72   1      9.1036925237531712      14.050018721688597      1.6054962004286146
    73   1      7.6222894815258577      15.052112840463922      35.811607022449252
    74   1      9.0531455591114316      16.343866549163582      1.5479794228603616
    75   1      7.6887616354572152      17.781255268901546      36.065533259473078
    76   1      8.7300650646686577      18.903563628035311      1.6533837706571368
    77   1      7.6203524748290326       20.45086737546956    0.055048593333185472
    78   1      8.8848909708599795      21.854406274247573        1.89223912246822
    79   1      7.7555653085451173      23.030245909150182      36.065927807835244
    80   1      8.8722725195590595      24.223546586976319      1.8141285564378564
    81   1      9.9554874751876401      25.449128261992779      36.093385789911515
    82   1      11.291084398957171      1.1184902185901855       1.667830336068425
    83   1      10.033597484954665      2.5527066095873363     0.19847173546893379
    84   1      11.498137599968201      3.7810074585286135      1.9741011677976983
    85   1      10.150527935406171       5.057410541583037      0.2979024987219076
    86   1      11.451026153163902      6.2918299747427691      1.8032652787569206
    87   1      10.261748532316558      7.6822460851586776     0.11713953273166441
    88   1      11.431324106390928      8.7290445732240887      2.0161189608936878
    89   1      10.138396836285708      10.202406486561754      35.983191250048336
    90   1      11.707695681808136      11.435521943602554      1.7788595710744419
    91   1      10.394545969928501      12.637280989265042     0.16118836752666529
    92   1      11.498008962980734      14.140215575586943      1.9024506727734662
    93   1      10.393694825407202      15.005281028995384      35.911112110266764
    94   1      11.548045323965317      16.710099893492409      1.6800656262518265
    95   1       10.15473076269247       17.92578052248318     0.01531023544318943
    96   1      11.227094296005697      19.225822772387858      1.7866814533669189
    97   1      10.207768297110968      20.547804917204971      36.087465711572577
    98   1      11.356821979289419      22.005710830954126      1.6780438870665546
    99   1      10.189520217040741      22.992800597305678      36.021195617094442
   100   1      11.358091067541432      24.275838002231538      1.6390667806516144
   101   1      12.570878379059767     0.14359068608242309      0.0081493090145841
   102   1      13.754904540465027      1.3770921653844144      1.9411931695055722
   103   1      12.422298821575376      2.6063118678021602     0.15489149123891371
   104   1       14.11160950101273      3.7841848661352859      1.8873542242805224
   105   1       12.79666036082924      5.0500424395864254      0.1939786432236133
   106   1       13.95217452592572      6.2228013859175988      1.9564493473341271
   107   1      12.606585870052131      7.7059929596135532     0.20713823007596374
   108   1      14.019242595840661      8.9925450662559836      1.9029395081611269
   109   1       12.85330677926563      10.123826003469329      36.073651917283115
   110   1      14.111210377467085      11.387408514530302      1.7976673099404821
   111   1      12.846568122784925       12.69912517261584      35.935479648266622
   112   1      14.334969455186643      14.103044421453976      1.8605045643876688
   113   1      12.724578148097445      15.307236999840342     0.14210860267975231
   114   1       14.13023885245739      16.580536132918759      1.6160631184907068
   115   1       12.88955305621052      17.905984962905833      36.012304936924345
   116   1      13.905845385813993      18.986126936262462      1.6442445003590382
   117   1      12.525739433596701      20.369652846196342   0.0096999285233664474
   118   1      13.790802273007861      21.878747323361548      1.6840790816008389
   119   1      12.862301947878313      23.001814657156498      35.991947732027953
   120   1      13.984829698371554      24.423688998402323      1.8778035156016712
   121   1      14.817798342356127     0.42717592709000546      36.036592162577627
   122   1      16.515826752915242      1.3158168290375252      1.7081514456589517
   123   1      15.280030374334158      2.6042760228081288      35.938122132853515
   124   1      16.578524292112636      3.8326307408904055      1.7255001810783146
   125   1      15.204665245752027       4.987299152308764      36.053241333558589
   126   1       16.75660036278417      6.2290546185926399      1.9186603975694181
   127   1      15.536114366053036      7.5610873148645155    0.024364883725763762
   128   1      16.786975040372738      8.8820506641369068      1.6707442784222069
   129   1      15.243387463062648      10.085182157969015    0.030646964813172403
   130   1      16.829424550858384      11.791011244040442      1.7023765734746905
   131   1      15.285860173209214      12.652369442491766    0.026083069281799005
   132   1      16.817397350528317      14.168348455149465      1.8198118162701122
   133   1      15.416299705595563      15.209131027890576      35.981324440106803
   134   1      16.476408531566026      16.554944106626039       1.678748860254609
   135   1      15.336917975632556       17.80833443374236        36.0268097492728
   136   1      16.370611855969774      19.181000613875934       1.800921471365075
   137   1      15.233374996392147      20.396416919818076      36.095226185049093
   138   1      16.329901735318888      21.633372616827081      1.7316382527774192
   139   1       15.37044540882415      23.193106327344445    0.053069228758886498
   140   1      16.463355963729192      24.307556859691594      1.9946185725990628
   141   1      17.568578307837207    0.078963338315376927      0.0875154101469207
   142   1      18.978535613216099      1.2386225034795875      1.8099274157918996
   143   1       17.80006460089395      2.5020846554869935       35.94204789202707
   144   1      18.929095311880232      3.8259121121832851      1.8886239386033472
   145   1      17.856175812754383      5.0967651801882941    0.027190580480703361
   146   1      19.351891414217725      6.4215795072248598      1.6599196758595893
   147   1      17.851053360375772      7.5844586583467359       35.99387150599533
   148   1      19.185737711951575       8.979923462264864      1.8681689187933226
   149   1      17.784750911495074      10.268878122486711    0.097573356646375814
   150   1      19.289868539137021      11.643979536240412      1.6893526431105794
   151   1      17.790417805479951      12.984467928109982      35.809221348012152
   152   1      19.092828829774358      14.056462067304681      1.7205773192663867
   153   1      18.053964495907206      15.293840629506883     0.05115764844101723
   154   1      19.071809588463164      16.743835449326252      1.7224543606055476
   155   1      17.841448456514637      17.997681766236028    0.060051118535795943
   156   1      19.093509086109222      19.383029716266851       2.039372270592378
   157   1       17.71602894513542      20.680259978804159     0.14998128047991502
   158   1      19.077547476179909      21.872760813464211      1.9992979817868572
   159   1      17.891494386480986       23.07524351698877     0.18010023895088806
   160   1        19.1978056907103      24.409703324550993      1.7567202026570379
   161   1      20.121193418316476      25.444338683519785      35.867539640456435
   162   1      21.514028733153506      1.3978176862347498      1.5716051325926761
   163   1      20.280084492901679      2.6561926438821266      36.092062427357511
   164   1      21.453665609584458        3.88167258492782      1.6906957790006334
   165   1      20.479710543040106      5.2363858118672404      35.885429996307046
   166   1      21.759299721960577      6.2606526129217457      1.7017298525981117
   167   1      20.782681283135474      7.9054661019130519      35.896768536540961
   168   1      21.720302494506754      9.0269736621599144      1.7776965352439895
   169   1      20.433175211178984      10.300094457279936      36.069864787509708
   170   1      21.795067991626283      11.516969659359159      1.8322522425710293
   171   1      20.369338996163627      12.710679255691117         35.882403968279
   172   1      21.488267461070556      13.993274042928602      1.7523272181661687
   173   1      20.364684838002312      15.243115463385234      36.064006889439604
   174   1      21.504882531131734      16.867843307652254      1.7954731397262418
   175   1      20.398291260674618      17.936739065559429      35.898971699077343
   176   1      21.464213655576803      19.284678758285285      1.7648079816945716
   177   1       20.26845047003096      20.535324306858818     0.07676597327282482
   178   1      21.451036394128202      21.872078764052954      1.9072531927199532
   179   1      20.240290565688767      22.915349142645209      36.057577661133031
   180   1      21.555437578327975      24.380734550895895       1.514986884060032
   181   1       22.95828369107932      25.400269360677356      35.929171511657991
   182   1      24.282753472219241      1.1369822558888587      1.6959639911346578
   183   1      22.986009456856312      2.6909424271874678    0.063812361378040985
   184   1      24.309622584530612      3.9258623687069605       1.646778987563686
   185   1      23.234163779002785      5.1337235977322626      35.869690786350709
   186   1      24.257829071346347      6.3720783732075414      1.6549434879633043
   187   1      23.016186276806945      7.5188271626765735      36.053726011397622
   188   1      24.226820598769915      8.8467001274516068      2.0690801698927541
   189   1      22.954611381838198      10.120117254783427   0.0017085718944485975
   190   1      24.268565787333667      11.469886660683827      1.7520793759130027
   191   1       23.12211372601849      12.885342838135749    0.091598093831487273
   192   1      24.336101689433185      13.914251751487155       1.731265740931839
   193   1       22.94986071162916      15.546165635151645     0.26527947255210632
   194   1      24.318483487647711      16.663426397029188      1.8543725359559073
   195   1      22.940846945756917      18.137887352724359      36.048701740279128
   196   1      24.245525743889168      19.164368476626663      1.5713639665239403
   197   1      22.782444202907389      20.489741445968892     0.10241265240996437
   198   1      24.277725618278875      21.649746730810904      1.8614940405712797
   199   1      22.782470616599202      22.747336819359809    0.006687718231603421
   200   1      24.223783061248202      24.215273891096544      1.8181060634743074
   201   1    0.034458550614346162      25.387197117709636      3.7052593068281277
   202   1      1.4503918023822127      1.2971330668198742      5.3438037703897754
   203   1      25.376147791751698      2.6105393307217368       3.666999648982515
   204   1      1.1720098413755111      3.8113711960717196      5.4208928448657403
   205   1     0.25689636659604331      5.1618503901755028      3.3751253655928157
   206   1      1.2945661776640571      6.1986328562258723      5.4802993592364802
   207   1      25.512211343517862       7.580263352300892      3.7949576614802951
   208   1      1.2915123615870734      8.7653896554080273      5.5250479807353585
   209   1      25.384964387853497      10.263886972822259      3.5642275806391459
   210   1      1.3283937641920796      11.406894151084844      5.3408918203113673
   211   1      25.332130073412333       12.59947231545123      3.5016072339041315
   212   1      1.2889079835222916      13.850860462805169      5.5162971358243942
   213   1       25.35459109313167      15.060932339258951      3.6516265232190044
   214   1      1.3939641737786725      16.576564525376085      5.4076237689834965
   215   1    0.041623160452158303      17.828688642131713      3.7839639226026818
   216   1      1.1910670192598496      19.312110665696569      5.1000850739397334
   217   1      25.319439666285856      20.343697407740741      3.6779791856891668
   218   1      1.3295712071961676      21.712179640378078      5.4139958214539483
   219   1      25.427048554079395      22.965910971206739      3.7211409947790437
   220   1      1.3687469867000888       24.18015543236146      5.2938163186079938
   221   1      2.6701980210916281      25.475654771740377      3.4542863657920395
   222   1      3.8804875179186964      1.0561000906294877      5.4462972356365675
   223   1      2.7058864504933022      2.6105234674358075       3.760327030081994
   224   1      3.8822556712013059      3.7263994433668359      5.4421412850845288
   225   1      2.5971229360342383      5.1784126968249558      3.6193934315899696
   226   1      3.7765907947699038      6.1352615133638135      5.5851285906195214
   227   1      2.4455459988134893      7.5245596642570272      3.7111175673164851
   228   1      3.6684952456408904      8.8997470565162775      5.5361660611896886
   229   1      2.7385368251061197       10.21256873615779       3.473145113233953
   230   1      3.9909524223994324      11.333047992101211      5.4549824114841252
   231   1      2.7105223563307228      12.633340722683636      3.7196298610252838
   232   1      4.0002542761580466      13.868930532056845      5.2194811316913725
   233   1      2.6723456035408351        15.1724743016823      3.6834163814863414
   234   1      3.7084945932775808        16.6953163121138      5.3227192280726756
   235   1      2.4437347742289117        17.8431874291851      3.7308958035253879
   236   1      3.8129906044681521      19.294077489106154      5.2593146095595946
   237   1      2.4489217573023048      20.613724073930399      3.5155485136239468
   238   1      3.8531571365045285      21.905609256984835      5.5253278324904569
   239   1      2.5305341439435054      23.127466278711779      3.5049146357975598
   240   1      3.9299810325331368      24.362928298874277      5.4147391693857303
   241   1       5.024135058116098      25.337966644003924      3.3406937484143566
   242   1      6.4213776228425745      1.1003187496370022      5.4804549530234725
   243   1      5.2750702397389633      2.6028067755071422      3.4962780853641888
   244   1      6.4789789065306156      3.8067053353800202      5.6904689262129127
   245   1      5.0535643428028623       5.036725920440249      3.7182394913170116
   246   1      6.3258485771007757      6.3963926921949126       5.462470027182345
   247   1      4.9808266936545742      7.5848654404511224      3.8027624308176997
   248   1      6.1542551182043681      8.8820848421578376       5.484948035098844
   249   1      5.4190736530851984      10.245219751477595      3.8041087704585732
   250   1      6.5050937757574285      11.651475990598884       5.205616128236338
   251   1      5.4401757134757176      12.811487687822956      3.4977390973343629
   252   1      6.5183966007400151       14.24689718948113      5.4166142845254264
   253   1      5.2571119293762498       15.23775815683222      3.4552328847720006
   254   1      6.1517708362225338       16.79905187485959      5.5061414184462114
   255   1      5.1096185999818351      17.635243201706707      3.7723449193559437
   256   1      6.0735226539350906      19.306967606603646      5.4611054011025715
   257   1      5.0984194812675803      20.155105175952087      3.6107593822289332
   258   1      6.3333505163401158      21.869684075921111      5.6595186200589058
   259   1      5.0107413928022426      22.698720737270104      3.7355346255217152
   260   1      6.1981377752076208      24.338281427609463      5.4189649859060252
   261   1      7.5702329713132261      25.317347186339909      3.5726432670088104
   262   1      8.9814023087611119      1.1912118587536131      5.4005251595906589
   263   1      7.5891027001315239      2.6986638906305789      3.9234511527935192
   264   1       9.018291668593422      3.9972222666759678       5.392719661415228
   265   1      7.5670844227907823      5.4371416108840762      3.6890600653925141
   266   1      8.8388403319591653      6.3212757311519079      5.6028387568529991
   267   1      7.7058838307026924      7.6491823063304949      3.6884095244901212
   268   1      9.1146093452635011       8.840370547788682      5.5568430587013351
   269   1      8.0325172461298902      10.005875587594739      3.7775573227975974
   270   1      8.9993291198044183      11.448790397787487      5.5659181130975277
   271   1      7.9147779297599525       12.74274626324236      3.7336486773404864
   272   1      9.0234828027990837      14.113807530786591      5.5365896164220736
   273   1      7.7623338919452394      15.148928841646704      3.5424289473783803
   274   1      9.0969832810630837      16.550435574982547      5.3991852282106736
   275   1      7.6626489363273675      17.647508873830485      3.4338472201571002
   276   1      8.9323449338699223       19.10490320033929      5.1508200536533799
   277   1      7.5794969807264687      20.489745483585242      3.5598223178620731
   278   1      8.9670981575803861       21.86467525045942      5.2459567284400377
   279   1      7.5328764443611087       22.86986594711755      3.8556066150572472
   280   1       9.137459602962501      24.278782494825546      5.4345387214136966
   281   1      10.322289485390357      25.250349123744837      3.6607506773724139
   282   1      11.408317789544485      1.0969526146882729      5.6413603133247765
   283   1      10.188669019078491      2.4411922316752963      3.7241201098962304
   284   1       11.53777789674241      3.7225143445283089      5.6547851630118977
   285   1      10.498298690183375      5.1344439125187273      3.6164134923130686
   286   1      11.297053467356029      6.4278496281404633      5.7355103520148347
   287   1      10.141130433776036      7.3616989505110055      4.0070739803543676
   288   1      11.528365285606291      8.7372213845540845      5.4689694119572998
   289   1      10.398355514472549      10.173454496885869      3.6989544716990737
   290   1      11.651075974434889      11.670636848990751      5.4766823465048837
   291   1       10.34623618165552      12.588728213548672      3.5105642888100652
   292   1      11.550792455407148      13.947678507344426      5.4775409029536259
   293   1      10.296805670117124      15.446052446267132      3.5856666219295787
   294   1      11.600400351348028      16.386052982247662       5.438444398963898
   295   1       10.26139999045378      17.955752880646436      3.4785518657051626
   296   1      11.515908138709703      19.106097716698777      5.3351479318679917
   297   1      10.041631658847018      20.346994718700532      3.5952774460968828
   298   1      11.347869733580318      21.487969023912367      5.3016180666544166
   299   1      10.343839128462239      22.853091136363908      3.5583388129240472
   300   1      11.686571182652422      23.982165156834437      5.6464678206783523
   301   1       12.71832567264685     0.02686397909823332      3.6468685770709137
   302   1      14.019851580614606      1.2353968166748528      5.3202062574306632
   303   1      12.611323219043244      2.4869131149024755       3.824254914215262
   304   1      13.841808799875079      3.8961556850866561      5.5447079449790628
   305   1      12.861461593702991      4.9435056227159668      3.6287450125256422
   306   1      14.045078123923981      6.2773396378096304      5.5212056183285352
   307   1      12.611300616937095      7.5405322709795852      3.7196255661762261
   308   1      14.161709802090593      8.6677328900100665      5.4972749568208927
   309   1       12.84184755155105      9.9933207004755076      3.7667250898115925
   310   1       14.17347961814813      11.413747124237366      5.4874823462132225
   311   1      12.737407724578233      12.544863435126588      3.5948761036868406
   312   1      14.128713839469858      13.718071693214069      5.2932242083276844
   313   1       13.00673651563474      15.170959787946567      3.4579642321581892
   314   1      14.114509044436861      16.455393248963887      5.3560729531076925
   315   1      12.723382548391468      18.096352542523856      3.6240552075178756
   316   1      13.914809797087536      19.173474993836226      5.4696405163940662
   317   1      12.568582639429856      20.448755474016007      3.5910237414395287
   318   1      13.922921808173484      21.726211019242669      5.4184405562824915
   319   1      12.782591053790714      22.994942577507231      3.6163432265526203
   320   1       14.06813103307746      24.364149048227599      5.3850045888189353
   321   1      15.231869249849831    0.071134224510269004      3.6052392268742337
   322   1      16.710451405630415      1.2478946598257541      5.5956362465699181
   323   1      15.281470652935203      2.5364939865214939      3.6557770584753486
   324   1      16.555453698656034      3.7946597745850847      5.3318344289338961
   325   1      15.553688536094104      4.9909497122757598      3.5789072794739361
   326   1      16.639034302294178      6.2914648240443256      5.4428430634276577
   327   1      15.375972302428433      7.7587082987295064      3.6892589324435798
   328   1      16.697139226201791       8.920474139325087      5.4213652025711543
   329   1      15.237032363893821       10.23664767899059       3.748320344178468
   330   1       16.81729468482056      11.661540129448976      5.3949820613484869
   331   1      15.303562334181306      12.679415046742438      3.5930365286089687
   332   1      16.752896279313997      14.236081240236826      5.4868786846501472
   333   1      15.458621612223379      15.078206266490415      3.6572079551475221
   334   1      16.536648477893749      16.631620713463789      5.4360892270872041
   335   1       15.34359291204346       17.91403955015862      3.4501576153748021
   336   1      16.494857452340959      19.437984570079351       5.514409414538779
   337   1      14.979208058593969      20.354328489077396      3.6294863262135779
   338   1      16.518616636783634      21.926622241119787      5.3352777505809321
   339   1      15.204575264579324      22.925331931265628      3.3773897195143259
   340   1      16.644409538755333      24.374755463108311      5.4758242127984031
   341   1      17.764678772809887     0.17961091559398892      3.6872480888667618
   342   1      19.351322758399736      1.4453605828920884      5.3411121701894473
   343   1      17.780682089583497      2.5356589597248118      3.6922503582939608
   344   1      19.253823225301687      3.8712381394876068      5.4441600084536814
   345   1       18.06451892689805      5.2224447880646148      3.8773522207573028
   346   1      19.379820272381224      6.5428581296599475      5.4045879916002004
   347   1      17.943687574179311       7.514739522419946      3.4835414337263062
   348   1      19.347841088000326      9.1158411046506167      5.4547622306701458
   349   1      18.048475909551584       10.03987198965851      3.5744989915644507
   350   1      19.300531102003966      11.721550725384683      5.5280703501106183
   351   1      18.036858517740328      12.532636772975899      3.5409604125079683
   352   1      19.344592048725104      14.137742757568237       5.760342503527073
   353   1      17.826322268421279      15.721672100565641       3.554386270427552
   354   1      19.248185662289224       16.66702283386341      5.4947170036660129
   355   1      17.842839070959993      18.117720619443858       3.814635532677785
   356   1      19.061225473598174      19.028892053805091      5.5258213988365235
   357   1      17.594467175272129      20.544074745294296      3.6664188877720831
   358   1      18.987299306863054      21.702781182624065      5.4493986486144195
   359   1      17.727837517226554      23.065953951336173      3.5414493812007302