dump/Cu_720_0/steps_91 (written by ASE) 

2000 	 atoms 
1  atom types
0.0      25.526554800834361  xlo xhi
0.0              25.5265548  ylo yhi
0.0      36.100000000000001  zlo zhi


Atoms 

     1   1       25.33202735275604      25.297870756454063      36.061723003798313
     2   1      1.1748879458284374     0.93138881970183129       1.787403427817104
     3   1      25.485947458150591      2.2663049644744211      36.003505421833793
     4   1      1.2337520475018757      3.4862521600906513      1.5276660961326556
     5   1    0.011983471467994191       5.116119317677259    0.097720724907981255
     6   1      1.3718180688623582      6.2284883069239729      1.8774015174188308
     7   1      0.2430101627677716      7.5730142000521665      36.001643346035429
     8   1       1.335768445588841      8.9401199614282518      1.5473827159199591
     9   1      25.328911185309718      10.077957575390483      36.076158281048585
    10   1      1.2755296595375618      11.519670669731839      1.5965186172589048
    11   1      25.432419553204852      12.683885442502316    0.017819824031960248
    12   1      1.2283617129455153      14.045082672123492      1.6791235178933439
    13   1    0.045036428234949716      15.256639719424877   0.0067915793900965591
    14   1      1.2970849893526404      16.657043581361847      1.7689917202355561
    15   1      0.1916753724074754      17.935186063285006    0.041080673966587426
    16   1      1.3982400339569534      19.065896847289206      1.9275920676555656
    17   1    0.072280963873851106      20.299315845375308     0.21783906524523217
    18   1      1.3205396053025176      21.438192720665288      1.7583888790231077
    19   1    0.043850149314325258      22.851225268161144    0.030809453606718776
    20   1      1.2449389913797124      24.078263975293737      1.7728388114338014
    21   1      2.3807773691925989      25.388332590206637    0.058971827815344179
    22   1        3.80568975558672      1.4012642640721313      1.7012957193978093
    23   1      2.5038206004259367      2.4470557173003891      36.019879969502057
    24   1      3.8863098196461165       3.786783985799818      1.8627216355208933
    25   1      2.5029783399049585       4.904538840935782     0.10598285464842547
    26   1      3.9808999598219268      6.3772207619511088      1.9968817578713594
    27   1      2.6109619814442526      7.3302172967841912    0.047735670939505176
    28   1      3.8712029393838798       8.867095099614378      1.8544057134503971
    29   1      2.4150970770387432      9.9946971183945053      35.943786605325663
    30   1      3.6934661723033084      11.629962359279617      1.9720696376498392
    31   1      2.4898335824190778      12.815131195518243      35.886876951266053
    32   1        3.66097697217366      13.892210499300932      1.9323408290610125
    33   1      2.5527839777187649      15.436560269951038    0.035456634088768618
    34   1      3.9187903013683627      16.601061051727619      1.8320741484903802
    35   1        2.68096730659569      17.693852380262079       35.98492568613316
    36   1      3.9209951565183765      19.221658522738601      1.8125479141825178
    37   1      2.7629532070207117      20.331409977564295      36.063627047081432
    38   1      3.8822891768878849      21.644099956466327      1.6538212801977712
    39   1      2.7049796876071852       22.89185651135136   0.0081610939311303633
    40   1       3.680937733873975      24.158902912709493      1.8165675682701945
    41   1      4.9035035307618493      25.475516887622604   0.0021176068351792328
    42   1      6.2405064081119308      1.2278426435817926      1.7027188048447663
    43   1      5.0558052506641094       2.624572164683217      35.922648403207937
    44   1      6.2568531251027659      3.5898588336158319      1.7943755079947341
    45   1      4.9675001923956259      4.9509311104272253    0.090234329336635805
    46   1      6.3892667525951099      6.3209131170220845      1.8208750251359689
    47   1      4.9089309236768406      7.5042075574534284     0.11831347145532627
    48   1      6.2281189290546024      8.8065092141173142      1.9448712531753365
    49   1      5.0013239607387732      10.179201591175341      36.034717388340454
    50   1      6.3967895400648525      11.321299433916749      2.0451023303743696
    51   1      5.1983541545112892       12.55283809489185       36.01229270729219
    52   1      6.2651475758345283      13.910722365496596      1.8818244192466864
    53   1      4.9106072798423153      15.078213751890614     0.11040797764524093
    54   1      6.3156907247464913      16.531534158845904      1.7756930254548124
    55   1      5.0840437339683264      17.998798761598774      36.086193321180865
    56   1      6.4171013680690008       19.11451744060421       1.984305194886691
    57   1      5.3587876438596789      20.567410129873529      36.055156962410067
    58   1      6.6545507831481228      21.791266428931976      1.7637848136215308
    59   1      5.2748490519008495      23.157000926005509     0.13633614452407974
    60   1       6.369850960792947      24.271184233633495      1.8409449074148958
    61   1      7.4779954188396971      25.479489435541588      35.918884986371246
    62   1      8.7445847008844595      1.1314401277736832      1.7578136557633448
    63   1      7.7946603619277317      2.2667270477495691      35.825710725098041
    64   1      8.7286524894926423      3.5350797378802308      1.6718831929112994
    65   1      7.4882124954192752       5.051342229525253    0.028428669933259692
    66   1      9.0469755846598812       6.271705904552622      1.6811624924260058
    67   1      7.5058552732333013      7.6903354674627336    0.094206393432216318
    68   1      8.9631038950796498      9.2046757058810744      1.8068784786120555
    69   1      7.6620956291226126      10.236859465346518     0.16848001568807836
    70   1      9.1226408435508279      11.502726159595175      1.6347834506184753
    71   1      7.6336330795143974       12.58944773008735      36.048137524390519
    72   1      8.8014113864348928      14.200744317105805      1.7304900607110665
    73   1      7.6648344536914665      15.244621081747582      36.073878837732899
    74   1      8.7641643235372744       16.72205855759297      1.9025792147927756
    75   1      7.5170332265974942       17.84924788643993    0.082447396370787393
    76   1      8.8963622297226124      19.034374340328007      2.0507962905381292
    77   1      7.7688508534778267      20.404507720673724    0.042190876671929799
    78   1      8.9866505174383864      21.400142055364022      1.8483495977632285
    79   1      7.7625253729396215      23.047473085989274     0.17314515744160427
    80   1      8.9471577946638643      24.392516613231734       1.797863433945907
    81   1      9.9566511178306758     0.01038651361265608       35.95630155585534
    82   1       11.43340142622043      1.0714234042062873      1.5747538406628672
    83   1      10.235882288459903      2.5158981725396399      36.069084582807555
    84   1      11.441539107363759      3.7416633500411236      1.9692022806549854
    85   1      10.154288500523483      4.8657192560476803     0.28389089889523123
    86   1      11.538313457816278      6.4225836563874834      1.7430641983685764
    87   1      10.292328383531281       7.532495685474605      0.0428081607353646
    88   1      11.395416606732935      8.9663825266582684      1.5916174721622283
    89   1      10.481464633908745      10.475009620525437      36.002167378852512
    90   1      11.626399076367655      11.413763416092655       2.029269142108705
    91   1      10.167480468298596      12.845207375449043      35.978016540936622
    92   1      11.590597467978048      14.121795384991549      1.7230250016680437
    93   1      10.346681648264189      15.255291203064358     0.11639922194908667
    94   1      11.429644228410725      16.522925570285846       1.807982606194072
    95   1      9.9624233532124986      17.578216835303273      35.996920271420855
    96   1       11.46054454720074      19.060274802766468      1.8349139404676642
    97   1      10.208343918215142      20.176561059449661      36.067172765494625
    98   1      11.591577325842243      21.761253072540025      1.7577084475301163
    99   1      10.132298990281349      22.894110398614469      36.004298208750889
   100   1      11.458664769714849      24.290697511802691      1.6136231059446113
   101   1      12.835105441052921    0.030088493554069343      36.084040565783724
   102   1      14.095447347120309      1.3018110460659573      1.8102063458740068
   103   1      12.859749406924699      2.5071788327021158     0.19452672976914315
   104   1      13.990126544595736       3.773803032086152      2.1093744991809564
   105   1      12.669658535368196      4.9138760557056544     0.17072766201185921
   106   1      14.131479092295828      6.5183589097020871        1.68017785089895
   107   1      12.591691943041793      7.7279854805897354      36.045197918442206
   108   1      14.204478179404461      8.9691619022988132       1.773768824400962
   109   1      12.890111338153309      10.305647316670239    0.032893429879959531
   110   1      14.104113425970093      11.532079319260934      1.9062561335193198
   111   1      12.972023889268961        12.5277319513379     0.03259053041881544
   112   1      14.168083730109958      14.206002777566653      1.8323756328596246
   113   1      12.762436736185736      15.441487143510303      36.050966665236182
   114   1       13.97695368266734       16.74119648954165      1.7066238243567242
   115   1      12.667985786438805      18.099249873045924     0.16467356384436033
   116   1      14.090542093224272      19.261552643746633      1.6247894091603818
   117   1      12.830173961838968      20.414295955647244      36.023251014207759
   118   1      14.124295196772325       21.87379548240261      2.0084521831062139
   119   1      12.971210512479315      22.894842740697978   0.0036792808711652641
   120   1      13.977198502383581      24.235420835722529      1.6726369874512326
   121   1      15.411738249054212      25.487097084484844      0.1473653241772466
   122   1      16.732572942736716      1.4212762888927266      1.7226885147379545
   123   1      15.407791296777098      2.5323400609746587    0.085407559233567604
   124   1      16.829146754409177      3.8745239449591251      1.6537526750033531
   125   1      15.684248301051827      4.9825531374023928      36.093414351963517
   126   1         16.607906390777      6.2528755283540196      1.8960616925452334
   127   1      15.424308407828045      7.6982177404264114     0.17948971791453253
   128   1      16.855590118174412      8.9868346607483058      1.8223417623841089
   129   1      15.455054919828608      10.288795554824024    0.038284878403124056
   130   1       16.66744230930972      11.502874680119126      1.8685914628300906
   131   1      15.478903439785091      12.873288872678021    0.004622276707323192
   132   1      16.828131931440382       14.29963813121992      1.8232148132030475
   133   1      15.246211263699323      15.470338369352062      36.086245998391412
   134   1       16.40631278333186      16.758816788614403      1.8802976163748435
   135   1      15.384300683077594      18.040549984010763      36.021892492983405
   136   1      16.583625529777581      19.389199385299499      1.9794011104085596
   137   1       15.41106705265255      20.837916209490672    0.010916373414761441
   138   1      16.622021658628491      22.095024781172423      1.8984296238886387
   139   1      15.531411477026998      23.052036469750472      36.005667080188474
   140   1      16.727077653319725       24.58734602733286      1.9041174801388496
   141   1      17.999242062462727    0.088095315173280994     0.14078267304726066
   142   1      19.186240073662955      1.2364620272007558      1.9254016541778909
   143   1      17.930812420424051      2.4867243484584427      35.924124147912075
   144   1      19.323592230618271      3.8447119644242531      1.6197521295305031
   145   1      18.140205672986184       4.943240401238425      35.979330402537741
   146   1      19.174286245254912      6.5207095943611355      1.8146380820327743
   147   1      17.893991559851894      7.5776882941547399      35.977705576600783
   148   1      19.115619443286111      9.0857753640271497       1.766021194763131
   149   1      17.881470869082428      10.194951444264824      35.854592389604953
   150   1      19.194355015970853      11.495082677826289      1.5685908791183363
   151   1      17.995008543655388      12.900466217655273      35.901274993750611
   152   1       19.10546306819155      14.124320173728124      1.7426522749207478
   153   1      17.805257681815462      15.360084111808417        36.0035130139619
   154   1      19.147967024083666      16.619923185735541      1.7597099729360832
   155   1      17.833113171432007      18.011584748169341    0.053179220967206092
   156   1       19.10282959014754      19.181418758822016      1.6476978161295617
   157   1       17.78103125468115       20.71952439746612    0.091345462772710662
   158   1      19.206188277101525      21.766772417880102      1.7381147151484591
   159   1       17.98223549816791      23.201890749544553     0.16632638338745681
   160   1      19.254872743477282      24.240183089266736       1.793491891758197
   161   1      20.501312271631406    0.042081676176935152   0.0060724735626649859
   162   1      21.722979462955685      1.2307375268569132      1.8102146569656627
   163   1      20.404873728075103      2.3922083598941257    0.028226240125650302
   164   1      21.848798717365959      3.6757767440040192      1.9463862845715436
   165   1       20.56316474150815      5.2003593388922367      35.937780658124623
   166   1      21.603581333992157      6.4764613648445106      1.8295231144577078
   167   1      20.308658439922141      7.5182129140873011      36.055163574262814
   168   1      21.607075356933986      8.8923219534840197      1.8745074219875293
   169   1      20.325350464532214      10.093744904461504       36.09611205459786
   170   1      21.889269392056566      11.492956845573996      1.6707458464244722
   171   1      20.376300976425377      12.684231370799722      35.952895245869271
   172   1      21.606888258410365      14.188559770147403      1.6893962381972762
   173   1      20.227829643458676      15.173147280280634      36.021397656186068
   174   1      21.625665823555714      16.650060912171259      1.7840176336942926
   175   1      20.361673215794621      17.949864022677769      35.985607124405767
   176   1      21.547058496333516      19.251991455653908      2.0207628001172115
   177   1      20.518476315883049      20.589833042527204      36.058738462177139
   178   1      21.731338139160837      21.718438706186479      1.6507403982703988
   179   1      20.683877880100933      23.010939827394001      35.921045390931106
   180   1      21.841571846008669      24.388065659861542      1.8612157198610721
   181   1      22.954823706202056     0.04278804352150193     0.10985928141179795
   182   1      24.197219624378306      1.2168870315620728      1.8356598954682344
   183   1      22.997553392908696      2.5138806744003288      36.049055973087533
   184   1      24.220562955482873      3.8412773631186607      1.7019896864664572
   185   1      22.914955067581424      5.1617538638555649    0.043972104408010089
   186   1      24.164686667825947      6.3814960797711491      1.7400889945604623
   187   1      22.813474616045383      7.5649802532644737     0.16288731414493912
   188   1      24.105010514213628      8.7970055975303598      1.7494826101156711
   189   1      22.909327679498151      10.242919237289085       36.05722873462171
   190   1      24.324592145673371      11.493025002231686      1.8754897109612323
   191   1      22.993319417135574      12.874025489862866      36.049219870125299
   192   1      24.132368467570394      14.151931834071185      1.8082076216030607
   193   1      22.892172063581164      15.490086016037626      35.991596547852005
   194   1      24.269481790801631      16.491511557139425      1.5932405568610206
   195   1      23.141927969298912      17.947879869722257     0.16426627608246913
   196   1       24.24946279212158       19.20408132981834      1.9161091746580949
   197   1      23.103558637617418      20.499803129356408      36.051091789428924
   198   1      24.280775720211771      21.573272757507574       2.121617774718108
   199   1      23.140031274993284      22.918348506582909      35.981165973406227
   200   1      24.373043532943882      24.235568751538228      1.9222065907176236
   201   1     0.15837649913270896       25.38356884937474      3.7863725727394928
   202   1      1.6103593038346082      1.2727576796842637      5.4177247880650254
   203   1     0.20517329123885905      2.5099975214360657      3.4328373957809748
   204   1      1.4667679394784674      3.6309639181612954      5.6279759962323643
   205   1    0.011781053824515863      4.9858204785071729      3.5036261155148725
   206   1      1.4835236049995681      6.6186375394098613      5.5346094866680371
   207   1      25.517106420527277      7.3354117449288658      3.5163289557233619
   208   1      1.5315880744762096      9.0640932635316283      5.2712100071652292
   209   1     0.19857950151193318      10.221757602836739      3.3758375177825881
   210   1      1.1837235600760521      11.532695792003354      5.1224192590606128
   211   1      25.520950187966413      12.937456413375047      3.3407173151898997
   212   1      1.3255128378193881      14.089118167764536      5.4180787564733075
   213   1     0.11279364376967886      15.357833699689541      3.7507098836920449
   214   1      1.0209690252890946       16.58117218242953      5.3586514482874117
   215   1      25.380158784142104      17.678677014458149      3.4903610021115936
   216   1      1.2573428822246684      18.937928984338765      5.4247027972684325
   217   1      25.503436329490306      20.201426025519062      3.7680280354869229
   218   1      1.2247996912572423      21.690415227013609      5.5867621566429841
   219   1      25.358849181538115      22.976440813977248      3.6988073971552318
   220   1      1.3047336861220276      24.138038419695096       5.693696699670233
   221   1      2.8093098249766255      25.500990908669024      3.6172517574479701
   222   1      3.9067437430280991      1.1407718516266856      5.6073813016312686
   223   1      2.5089547345361969      2.5156904208574002      3.6139661252495316
   224   1      3.8359589190725472      3.6578335518597855      5.2163125500179923
   225   1      2.5682029463617329      4.8984068340007703      3.6099853933549055
   226   1      4.0418485038693346      6.3511927473980938       5.490621981090051
   227   1      2.4813212166027498      7.6912020447126705      3.5478191952034552
   228   1       3.795019527085894       8.771101056292796       5.470423842059259
   229   1      2.6212121555103982      10.187795465762054      3.5123082870788149
   230   1      3.8141637640885215      11.328063425983665      5.4992577099821442
   231   1      2.3895478917359774      12.760154437100399      3.6351698056805786
   232   1      3.8505556344708274      13.950124707278221      5.6153492276831392
   233   1      2.4884446161051756      15.098384287391932      3.5634178467447795
   234   1      3.6177021511715579      16.643907448411724      5.3656043924825747
   235   1      2.5867676547739236      17.720862399063705      3.4633336927018505
   236   1      3.5299461256885043      19.185100677577484      5.3504597964562519
   237   1      2.5036653135095346      20.485127104505466      3.6075612065104328
   238   1      3.9736760988540523      21.795845894986851      5.3289493648095361
   239   1      2.2567917113011449       23.12076804627819      3.5184870810433737
   240   1      3.7652299864992664      24.206417444397186      5.6383428217852707
   241   1      5.1528893257390189     0.03515174877447174      3.5002067020384069
   242   1      6.5446651537826055      1.3159827110743307       5.418484181004863
   243   1      5.1895944988259979      2.3638938298327998      3.5951928618677598
   244   1      6.3898467849059806      3.7510412345295179      5.5354100603704675
   245   1      5.0310817556523757      4.9245069174512413      3.5238843173006233
   246   1      6.5786427541803096      6.5418923179445638      5.2807165794395763
   247   1      5.1971663032022768       7.669057960169428      3.7367443149949962
   248   1        6.24791646671944      8.9145437250870678      5.5767453869580148
   249   1      5.2049538140445462      10.038395805995906      3.7877922051939348
   250   1       6.290185838932624      11.609431485872806      5.5914114924602414
   251   1      4.9847309048404833      12.603570744106577      3.8152763434115142
   252   1      6.3773327380370253      14.000877017086555      5.2981098255733254
   253   1      5.0004234707833568      15.267212478403991      3.7139992629434562
   254   1      6.4371737159704994      16.566864986401125      5.4291591489302977
   255   1      4.9742917057939415      18.004286428566864      3.6174643591848534
   256   1      6.2348038480566483      19.008479073359123      5.4750741869584818
   257   1      5.0758866988022238      20.388172711600106      3.8127103900953112
   258   1      6.3255696813468365      21.809854290789591      5.3880351548882865
   259   1      5.1079076918307145       22.93910399287136      3.5726245415548763
   260   1       6.593807269372209      24.427913819325294      5.3951278181987909
   261   1      7.6487051165371023      0.1525257634028851      3.5488830210173656
   262   1      8.8565395199490453      1.0946156158789349       5.365039570837804
   263   1      7.6628974291152545      2.5459063605147576      3.6699551387628513
   264   1      8.9615704257557169      3.5162043871449704      5.3128237521322506
   265   1      7.8366922899132598      5.0446746787167749      3.4838834478502245
   266   1      8.9216641707473663      6.1039537184056654      5.4983059928007982
   267   1      7.7921608283186448      7.6243185040866974      3.4901600661001115
   268   1      9.0444677923834877      8.9575475137093328      5.1931520540506835
   269   1       7.628674836382551      10.224334688717706      3.8033996188710519
   270   1      9.1424999616221232      11.591912085311744      5.4636167980376102
   271   1      7.6642775815419517      12.843871473437872      3.5405790245025401
   272   1      8.8870017271799693      14.163896265858435      5.3665515440513261
   273   1      7.8171068056726671      15.245217715151471      3.7034615380754441
   274   1      9.0028339659896925      16.558748559099829       5.491315430287611
   275   1       7.462681351538043      17.648026132308509      3.7294466755035658
   276   1      8.6433520639195009      19.228680688283095      5.2427163389418228
   277   1      7.5562696132964859      20.489690912941533      3.6319235524199049
   278   1      8.8344681168173249      21.710461498491135      5.2161709907989389
   279   1      7.5589921111043976      23.150132283994601      3.5472030575573519
   280   1      9.1394947754277815       24.32341586428948      5.3610363829654926
   281   1      10.164854890512037    0.080174469361063386      3.5020721907486867
   282   1      11.466295572961942      1.2763622076078736      5.5526095090198302
   283   1      10.229421542852698      2.5119734095197241      3.4666171172707112
   284   1      11.601752641059951      3.6160153117279288      5.3278997038603455
   285   1      10.334001738540868      5.0777949922122581      3.5136342415903292
   286   1      11.566552998238356      6.3284511164625608       5.246947458194799
   287   1      10.149801517504386      7.6998511173046325      3.4639107618726612
   288   1      11.682517173508117      8.9518928153338386      5.4972595617947784
   289   1      10.075245314610962      10.634324666556612      3.5860932947924637
   290   1      11.469270268572012      11.690277871963692      5.2943073577016859
   291   1      9.9044495842212221      12.931874759592539      3.5671615235398821
   292   1      11.323863148559026       14.06777188848965      5.3838522787079404
   293   1      10.225115810310308      15.288926497812328      3.4696415567513887
   294   1      11.566633187448662       16.62482263932587      5.4036424417037212
   295   1       10.26815078520527      17.702747785162284      3.3815443731026327
   296   1       11.29787291582617      19.288936127261582      5.2551206733648499
   297   1       10.19090170833212      20.310756802996465      3.5331650399512586
   298   1      11.387721730572308      21.783148912822639      5.6488161169731992
   299   1      9.9132808513216233      22.840184205245851      3.4180006233580351
   300   1      11.707528798778785      24.264132244656096      5.5010604841504751
   301   1      12.984800449974848     0.18066744552017927      3.4422390991240372
   302   1      14.100994034840715      1.2853575437227169      5.3849695976264291
   303   1      12.807925437585931      2.4098788865030034      3.6450654479681424
   304   1      14.041701563240613      3.8459500518709788       5.544047106697513
   305   1      12.909695118113934      5.1606530915525184      3.6144057016328568
   306   1      13.974971901114081      6.4121449869681575      5.3660332223222751
   307   1      12.903822764124474      7.7627033714459222      3.5008707910093229
   308   1      14.118989286537582      8.8906092778350683      5.0993959247952612
   309   1      12.761708053534264      10.352273794578688      3.7127266095510625
   310   1      14.055630424497377      11.670805170328734      5.5657021096857306
   311   1       12.92755495221961      12.799426420144291      3.5829147005558881
   312   1      13.884302483561825      14.081446104299273      5.4857259295978071
   313   1      12.913430889387662       15.38509522454436      3.6975089789080098
   314   1      14.036017461051523       16.68667471178744       5.407511613872078
   315   1       12.57688318135828      17.965643520432021      3.4400047250202541
   316   1      13.920008009189868      19.251053052162945      5.4995277178728923
   317   1       12.72919906642457      20.478335852775032      3.6488749104773359
   318   1      13.959897825720617       21.67847881580013      5.2135135841069244
   319   1      12.548568793605936      23.023311781254765      3.6073497914397179
   320   1      13.965935617729972      24.331537349329842      5.4221604735327071
   321   1      15.373256118173877      0.2552847058973412      3.6343796520861487
   322   1      16.817422717784627      1.6369516484401787       5.396907394168033
   323   1      15.395678010728746      2.6382091744294232      3.6994928963435032
   324   1      16.596312491752347      3.9943722416181924      5.6282929103812256
   325   1      15.432863896033721      5.1559696352032258      3.8412051141874013
   326   1      16.308314475734516      6.6826145885753006      5.5017340914817927
   327   1      15.355238891329064      7.7513355524087943       3.394176063376801
   328   1      16.579224646873751      9.0868705283017963      5.5126673031111997
   329   1      15.258320719075336       10.25828031371632      3.4941882444625425
   330   1      16.458375246224218      11.548667694846426      5.3077866062014873
   331   1      15.468603771694939      12.769029460922111      3.7314921138871298
   332   1      16.420269121390984      14.057860589947428      5.4295543439644156
   333   1      15.264668532672177      15.363803728008277      3.5870109294730486
   334   1      16.460208158385573      16.553477124704482       5.330020489752008
   335   1      15.018852272074197      17.849569126710612      3.5469834501880086
   336   1      16.395270481767444      19.232309527059069      5.1254559471548911
   337   1      15.185482146301155      20.311873288457466      3.5437209724677716
   338   1      16.713436651002109      21.684277156181356      5.3953682443320714
   339   1      15.365640410592986      23.309257401262304       3.699486085093298
   340   1      16.588728538208123      24.349376664924865      5.5525521770762296
   341   1      18.006570846229565     0.11751413400395784      3.5751649312605198
   342   1      19.246361963329054      1.3924529331513817      5.6213480426876226
   343   1      17.821158654719714      2.7605328522700439      3.4782883947387164
   344   1      19.225542680861402      4.0524947231619697      5.4147681808874166
   345   1      17.947638558735935       5.167603676069068      3.6026145254144226
   346   1      19.470900290884405      6.5896312981224021      5.4266766239084632
   347   1      18.042165242244973      7.7141419845638985      3.7586559060050546
   348   1      19.113154003080428      9.0515657019607936      5.6366361851644617
   349   1      17.842648679734257      10.246640636045479      3.8611565485626942
   350   1      19.244507457602289      11.435784244052975       5.469097960961796
   351   1      18.259489391124117      12.973209104602748      3.7882190115425014
   352   1      19.233707696433328      14.103899716158546      5.5696464241287051
   353   1      17.715872209129341      15.337673296010635      3.6955948524548257
   354   1      19.048432579259313      16.681736847891461      5.2887259987603672
   355   1        18.0036331161653      18.231970499877193      3.6216815822599973
   356   1       19.06889178779042      19.280207922609087      5.2848517186602342
   357   1      17.934794784869801      20.770531478216661      3.6031629539336549
   358   1      19.070738913849652      21.972704303537419      5.4646718497481768
   359   1      18.182168415566441      23.241226506119517      3.6561585670796024