dump/Cu_720_0/steps_71 (written by ASE) 

2000 	 atoms 
1  atom types
0.0      25.526554800834361  xlo xhi
0.0              25.5265548  ylo yhi
0.0      36.100000000000001  zlo zhi


Atoms 

     1   1      25.215648794470603       25.15685008677038      36.070731658442142
     2   1     0.96086140814196541       1.172074854637202      1.8925191339177545
     3   1    0.034603970217069908      2.2952258636925498      35.997537662480099
     4   1      1.3440900372619431      3.7189338765443418      1.8287422725414804
     5   1     0.17524411781996391      4.6604785965996562      35.989541550740192
     6   1      1.2784850673202313        6.44030973438222      1.6523744362565826
     7   1       0.101946196244543      7.5801355312490983    0.060126459452749352
     8   1      1.2225708611362061      8.9466796594578923      1.8658068870698334
     9   1      25.443546919099507      10.231305361326383      36.085201697868222
    10   1      1.0580969482860199      11.475013373218134      1.7891992498293583
    11   1       25.39027664736852      12.986485098313718    0.030447488230129247
    12   1      1.4147355035618543      14.017441644024787      1.7695626962947928
    13   1   0.0068979558528052204      15.396353904287746    0.037264118301027424
    14   1      1.2176665098769994      16.587544461336346       1.889872632363905
    15   1      25.299601549640386      17.847737315653298       0.233043604334671
    16   1      1.3819661856639716      18.922973373485284      1.6735854862916879
    17   1      25.517571569959102      20.331391926635721      36.061897833771269
    18   1      1.1424062117917648       21.51396307028179        1.90235026120929
    19   1      25.484763130577466      22.664514548920188      36.002757600387334
    20   1      1.0506494905341159      23.978236982111639      1.6466732727209883
    21   1      2.1679849733136103      25.408726230310016   0.0076437494979018005
    22   1      3.8478150957985933      1.2047897965238714      1.7708544414110421
    23   1      2.5142317955389801      2.2111864377137875      0.1993043976689137
    24   1      3.8786216225905639      3.8421618724647018       1.628675529348427
    25   1      2.5120692869371459      4.7919334585468514    0.064732070489776694
    26   1      4.0300340596009008      6.1635672420108927      1.5060984777000712
    27   1      2.5675331689759959      7.4944795732588778       35.96574482068764
    28   1      3.9132981388400006      8.7382028782334373      1.7756961057462599
    29   1      2.5038520961352284      10.204443330766486      36.054031299039764
    30   1      3.6481918516593814       11.36658167037738      1.6884652508318143
    31   1      2.5838936229706668       12.62734136709264     0.13024493794363268
    32   1      3.9058190919420541      14.031460794629423      1.8348627478764916
    33   1       2.577418366219014      15.032853396684054      36.096644709120909
    34   1      3.7679862192717879      16.560474446510753      1.8511128931638032
    35   1      2.4752441629211157      17.554922334040903    0.026385237019769636
    36   1      3.8565173151983707      19.072635069875076       1.886023057268962
    37   1        2.46988640498278      20.166630943990086   0.0049854441240427113
    38   1      3.4771181623384981      21.594285822948788      1.7792571672913384
    39   1      2.4835090207110433      22.695352430854651      36.049857812486657
    40   1      3.5727204480120327      24.165139956539818      1.6723165774754518
    41   1      5.1406541643275885      25.422256566759479    0.028365094865228018
    42   1      6.4035000798245374      1.0748785902289435      1.8938610517986492
    43   1      5.1502520432251169      2.3226128072756751     0.16478336834369436
    44   1      6.2903180380295654      3.7957199114368438      1.9354629061276449
    45   1      5.0612235099690857      5.0380613678536754      35.925222872200827
    46   1      6.6410211652387572      6.3925496352984359      1.7614306916625757
    47   1      5.3175103466848617      7.5662308755274665      35.962720152175898
    48   1      6.6274115202150616        9.07878280237966      1.6459577051937808
    49   1      5.2935521885199863      10.005049741731522    0.060872951293549707
    50   1      6.4384680017127796      11.423588700088969      1.6243381174495537
    51   1      5.0231324730478253      12.892794012872578    0.087309242580079119
    52   1      6.4357478882357455       14.14866746427413      1.9091361428352676
    53   1      5.0354470927779822       15.19060202772757      35.997068062802327
    54   1      6.1210515208852563      16.573934281387089      2.0925876260379925
    55   1      5.0510594688866064      17.674502719226219       36.03271419209797
    56   1      6.3711004025088487      19.083056808167626      2.0990670152935187
    57   1      5.1895912488418174      20.188185138656731      36.045391471677505
    58   1      6.4115739653813311      21.540454490458025      1.7814798173669257
    59   1      5.0766852344165887      22.706456531841624    0.095452198176769698
    60   1      6.4103023701062867      24.087370129569198      2.0164801252166282
    61   1       7.839199443130008      25.322956093265081    0.065199287549649071
    62   1      9.0079581535724014      1.5182359523345617      1.8251091459022861
    63   1       7.651625012956738       2.537961148932101     0.16877670291219135
    64   1      8.9397395358708405      3.7790483188974542        1.75592860995356
    65   1      7.5660902256086358      4.9327890221872819     0.10364038767037305
    66   1      9.0305727891955883      6.2321858307714697      1.6709911024330264
    67   1      7.6842396003218392      7.7451021772680217      35.886136444890518
    68   1      9.1108481974034081       9.016998182313225      1.5901339497653797
    69   1      7.6456315567900424      10.217315453306911      35.819066800168606
    70   1      8.9571656743979489      11.430323740633053      1.6733141196049255
    71   1       7.583899871166996      12.804592981734023      36.064618417122183
    72   1      8.8522211166417524       13.91731942954106      2.0081327509187199
    73   1      7.5346456309823191      15.469701232774446     0.22172416769983547
    74   1      8.8490565969619173      16.742013899728061      1.8965833016419096
    75   1      7.4756977858594142       17.72110622452594      36.008681161387273
    76   1      8.9198210921075241      19.077758724992556       1.493635868204273
    77   1      7.5506180076815559      20.344061763226939      35.924099210225215
    78   1      8.9509427436690032      21.698078554569339      1.9550608851270448
    79   1      7.5939569538627882      22.773598876525053    0.025481173587638736
    80   1      8.9842186166090077      24.227180123021096      1.9343228632340919
    81   1      10.307072915420257     0.34270933687494848     0.04944930903122912
    82   1      11.613695383387407       1.389612600217347      1.7835274979200777
    83   1      10.252893395220378      2.6973243461787648    0.079869063265891729
    84   1      11.640591982983297      3.9238337256715359      1.8117921727625921
    85   1      10.370837274187553      4.9740647665987998      35.994294106020156
    86   1      11.468413121966787      6.3005153800080436       1.632715842485071
    87   1       10.24064629239755      7.6625705712269347    0.067162471602807847
    88   1      11.451227373065707      8.8494804330371295      1.8091181822400466
    89   1      10.114974220377873      10.356969011246667    0.027895984857275374
    90   1      11.550551729714043      11.337970866609261      1.7976097093346424
    91   1      10.296115142969896      12.832624809284727    0.083606397506639438
    92   1      11.559471478741623      14.059754738444326      1.8699584390623387
    93   1      10.236863850389334      15.279160772628352     0.20171251753203021
    94   1      11.440757263330754      16.496423165962934      1.7934177707752252
    95   1      10.235534415089196      17.851066156995881    0.037073814062148241
    96   1       11.48943115963065      19.189725707270163      1.9278625472750601
    97   1       10.05745089900457      20.675781320650763     0.14562228562234641
    98   1      11.510942393345859      21.700955335871999      1.9316414725237461
    99   1      9.9734678639004315      23.106380903721998     0.11941499501378984
   100   1       11.48980560623537      24.350405032597116      1.6763355636668409
   101   1       12.64187175194126      25.433513874862644    0.018650341005150027
   102   1      14.057375495912609      1.1813185245868363      1.8014211560013207
   103   1      12.696118623322077      2.5480613583235296      36.085900668310714
   104   1      14.047435035667474      3.7923498999520566      1.6497569639915686
   105   1      12.902307843352405      5.1509937107952819      35.874713311020898
   106   1      14.062542771016714      6.3575504723235339      1.7521943989577164
   107   1      12.711529948958313      7.7571333170672734    0.030256941812717743
   108   1      13.780705201744313      9.2337542195014244      1.7825224270830751
   109   1      12.744601576023216      10.415410329655181      35.869271445867774
   110   1      13.982225137911083      11.412214648862799       1.780886694072888
   111   1      12.783644673070407      13.043331664580903    0.075428992667275527
   112   1      14.161655138192941      13.981136100741466      1.8017499523665816
   113   1      12.765105034932084       15.27699674662594      36.051555358734412
   114   1      13.894124212312294      16.490937877478114      1.7499616741131718
   115   1      12.546730415490986      17.774826659868541    0.084669373300948952
   116   1      13.902212186976673      19.063222554242305       2.042301563020124
   117   1      12.576825092637637        20.2426401733482     0.21927529503680027
   118   1      13.916014368223395      21.884980633540334      2.2686005294482463
   119   1      12.680129896131984      22.890747770270899    0.035748891566322522
   120   1      14.135210873073547      24.137868037887358      2.1371201738957795
   121   1      15.179717245910046    0.097481059682448037    0.070077108845509911
   122   1      16.438734536104295      1.1493286476508042      1.8965845315980929
   123   1      15.272104398742531      2.5536535866046162      35.971822659065623
   124   1      16.563972559127109      3.7784353701462887         1.7946898994878
   125   1      15.442019144645151      5.1845369118499276      36.022944795711759
   126   1      16.582848759299736      6.2349554973026828      1.7888041102620704
   127   1      15.239282250680898      7.6811300947497507      36.010311289008307
   128   1      16.261200968985715      8.8273487949403329      1.9189990985806966
   129   1      15.256290922011488      10.162246918080347     0.10578739113550462
   130   1       16.44912970080043       11.60848384901443      1.7542731739556066
   131   1      15.303755774915851      12.587243548066942      35.991425241133662
   132   1       16.61779519771121      14.071802214018224      1.6007380836856233
   133   1      15.264453059271338      15.146737894993382      35.990647250791781
   134   1      16.486154272254982      16.787754024904398      1.7091893118910091
   135   1      15.294740952172431      17.816240392672249      36.064675807405472
   136   1      16.627130739401171      19.202008829952778      1.9627917016262488
   137   1      14.905132519164379      20.497371709443364      0.2665232986797037
   138   1      16.433972267373623      21.598828071541064      1.7579190413632417
   139   1      15.362290100730606      23.107759646070974     0.10424970659682906
   140   1      16.786637293699457      24.376768765392129      1.7288214473059162
   141   1      17.754361719201256     0.34955575451417292    0.062621197444104715
   142   1      19.244178321113765      1.2235167878415452      1.7708840232628953
   143   1      17.772123536195092      2.7024628891797282    0.024611601288677315
   144   1      19.265916317310513      4.1833425980804577      1.6341049206593312
   145   1       17.78325145882453      5.2724069233879787    0.025869631421755933
   146   1      19.153202511410679      6.4416227089025453      1.8530928923132488
   147   1      17.553262286184438        7.80346283848142     0.21835015085584936
   148   1      18.690432640100159      9.1802934701355152      1.8522442992688402
   149   1      17.977387544237263       10.17880251914079    0.026783000938189607
   150   1       19.10860204031464      11.623588019093386      1.8275559043326559
   151   1      17.822945901013334      12.713805280952657    0.014796254754821809
   152   1      18.965206847140735       14.16855333716188      1.5672461302287175
   153   1       17.95596842673519       15.42639443124208      35.974908645703096
   154   1      19.156932761670564      16.590764670988552      1.7757611922210903
   155   1      17.991657890357693      17.935361098416081    0.028776403035362837
   156   1      19.139146770597186      19.299170505458626      1.6885517644780059
   157   1      17.744434308314492      20.423959032399285     0.13277992871661567
   158   1       19.04766774436559      21.821579543751664      1.7011858780724329
   159   1      17.670935305130772      22.884368156164435     0.14538299545738478
   160   1      19.315623010032176      24.313241020420318      1.8163048538607982
   161   1      20.237688819266126    0.098052243029215086    0.041227472091441168
   162   1      21.726031184002576      1.2372639453989849      1.8893170762385365
   163   1      20.504357788395232      2.8452417676019128     0.13447759515689772
   164   1      21.630709208435327      3.8727783213595703      1.8322264505716825
   165   1      20.632448692381356      5.3746061269825738      36.060265473994598
   166   1      21.798853023493177      6.2688204732957162      1.9376824312469227
   167   1      20.513488954410814      7.8090504356339414      36.057811161557005
   168   1      21.522714090869243      8.7557373539665573      1.9343621392657717
   169   1      20.519785392020868       10.28190731135717      36.026231442819999
   170   1      21.630925768969743      11.409460078421477       1.849548000630977
   171   1      20.370125816884823      12.809149222029991     0.13669358411418658
   172   1      21.798732059571694      14.005702186451348      1.8673530032825729
   173   1      20.603244008216468      15.512337978293969      36.051759149453723
   174   1      21.630503274049872      16.694019099470747      1.8817711110397677
   175   1      20.352991948602174      17.979335113138173      36.085892322379401
   176   1      21.408481590561568      19.400865967030317      1.9059028571886858
   177   1       20.23135492529229      20.592655002676839   0.0029918219899286685
   178   1      21.560334772531728      21.759446725089457      1.7665141952037533
   179   1      20.554836809417566      23.226436524825939      36.025054219638491
   180   1      21.791271856852802       24.32707062929402      1.8314849478204214
   181   1      22.994778116500353     0.16472465356507152    0.074803433418912768
   182   1      24.149219664722093      1.2452919699957103      2.0494118348141011
   183   1      23.120065794879903      2.4966987635984408      35.970221650783422
   184   1      24.312985970194681      3.6734584544669238      1.8296328468029528
   185   1      22.994202580260332      4.8829080740051163    0.060412742344988321
   186   1      24.282936193725032       6.164355886070874      1.5961931270826757
   187   1      22.911499490666383      7.5061973788809055    0.076058165530105346
   188   1      24.192966314618051        8.85740148174499       1.756691125506245
   189   1      22.803952867260975      9.8968486046842798     0.11834962938453385
   190   1       24.18238386211609       11.74393062966408      1.7817199012268943
   191   1       23.05835330613456      12.788990131573403    0.057395010321943045
   192   1      24.122080033158234      14.267076253753558      1.9191395642554772
   193   1      22.911990543362979       15.38322343159977      35.989004650824469
   194   1      24.009867471527386      16.704385158954913      1.6056892037788206
   195   1      22.777304018031579      18.064192361673545    0.093630763977876175
   196   1       24.25025221840145      19.201194079482804      1.8933019521526473
   197   1      23.013296236053101      20.582014204247375    0.029681089772793722
   198   1      24.154769738990584      21.594260863689332      1.6925165129342399
   199   1      23.102181852672413      23.126749769233882      36.066301104338613
   200   1      24.220202348614027       24.08979680006097      1.8786331789231332
   201   1      25.397498683919487    0.045431783390221282      3.7718094136176625
   202   1      1.3787951525213129      1.3176754878814858      5.4919790877375787
   203   1      25.447035095030468      2.6279011442264175      3.7876879658718221
   204   1      1.2909303452285985      3.8342099066723407      5.5645141629311956
   205   1    0.031987093298036645      4.9820635830284852      3.5026475299655444
   206   1      1.4232578337068331      6.2798412943343607      5.6247903767416867
   207   1   0.0043833742811306949      7.4896920053246978      3.3845507854903643
   208   1      1.3095411423173537      8.9160428802207807      5.4000077114633411
   209   1       25.39169481071146      10.028472329137733      3.6862801050480503
   210   1      1.2175350302115153      11.330174010874677      5.1417123528326014
   211   1      25.498407773539384      12.716780574723941       3.705675313866748
   212   1       1.127850104388634      14.091843692314749       5.465927601751563
   213   1     0.15512955138190759      15.214811608102222      3.6273759957169087
   214   1      1.2010034938640546      16.624145802236313      5.4454131527234244
   215   1      25.430967259303728      17.903678245046567      3.4959746391350115
   216   1      1.3887790344453876      19.063078899049703      5.4871498124662859
   217   1      25.254763990351194      20.342696647645166      3.8380390902803176
   218   1      1.1154982811894805      21.506254605910616      5.5728256587312952
   219   1    0.017823937764715681       22.82068923141949      3.9058453850676305
   220   1      1.2869477612179092      24.197562294282751         5.3569441874132
   221   1      2.3600774862270226    0.063323433008678695      3.4600368450218415
   222   1       3.854762242740847      1.4126046136258166      5.5032983085298666
   223   1      2.3135106246215762      2.5149991444719277      3.6076522953974535
   224   1      3.8055651918119184      3.9951089228131877      5.3764695593194141
   225   1       2.490145062725194        4.96605409572296      3.6015629662721254
   226   1      3.9324721374970575      6.3893072815534868      5.2372352355146958
   227   1       2.653884615452712       7.468756298018107      3.3558184793083337
   228   1      3.6445904684021557       9.014449106956274       5.162717108985019
   229   1      2.4270821028676894      10.213695132480391       3.459953438413482
   230   1        3.84836558424972      11.487993506590856       5.398970476408258
   231   1      2.5873510890629712      12.721273776025395      3.7589229854065835
   232   1      3.8160414875442386      13.901748662139118      5.4582112517639549
   233   1      2.5118766102063823      15.168908301225256       3.763622412436006
   234   1       3.816148403294255      16.445487222786412      5.4061507647866458
   235   1      2.4838183103476772      17.611993625922118      3.6039714722566951
   236   1      3.8945560791810809      19.120298721490105      5.5138080330302239
   237   1      2.4078765419867438      20.236174560387109      3.4572968017933148
   238   1      3.7018428800369638        21.6223586610183      5.2481372104842645
   239   1      2.4083246728157772      22.861741424841071       3.613181523071336
   240   1       3.842031720718218      24.014380154708181      5.4100882664322052
   241   1      5.0650770127867748      25.409856130910352      3.5013683321096676
   242   1      6.4284898454046315      1.2351317610195152      5.3509941497400817
   243   1      4.9636520496711789      2.6650723236970442      3.7543780614188997
   244   1      6.3919987913598479      4.0121141062996903      5.4378834416691504
   245   1      5.1212748769729686      5.1478018753963255      3.6369662141556591
   246   1      6.4947451069889119      6.3018421532323661      5.2964463421676999
   247   1      5.3178350084963126      7.7240086575708684      3.4522959218689717
   248   1      6.1837344958541953      8.8488069719177105      5.4248149636168783
   249   1      5.0667639965899296      10.155815132911229      3.4020417319616501
   250   1      6.2644637093644269      11.429454338276949      5.2229575057565159
   251   1      5.0708765884970175      12.712292469529331      3.4032119277754407
   252   1       6.421250252148611      14.007080906887081      5.5874941212439291
   253   1      5.1056880571939347       15.18477428489107      3.7890809366856675
   254   1      6.2971198391387961      16.580270023593172       5.437843782224709
   255   1      4.8744289782882957      17.958373637926343       3.779046371366388
   256   1      6.2633091836185812      19.168625082449459      5.4835475312230546
   257   1      5.0102958176691379      20.293526522006186      3.8200973937935703
   258   1      6.5403273679168432      21.729331724589635      5.5624987811489035
   259   1      5.0497683327065568      22.854184870176979      3.4882484005771297
   260   1      6.3959342681209019      24.248277649915472       5.397336790011658
   261   1      7.7832548514646493    0.075097595580392168      3.6347383615899194
   262   1      9.0946085729341597      1.2473599385191061      5.4242125278279314
   263   1      7.5097964472051855      2.4986142379887886      3.7954697294224178
   264   1      8.8676271933123569      3.7604015853825699      5.5196499816212734
   265   1      7.8072966270118016       4.920169591566605      3.5634139052418616
   266   1      9.0320406681182632      6.2257615684068321       5.484995017192408
   267   1      7.9497286896762498      7.7787586778030002      3.3225515381495128
   268   1       8.980485269661953       8.952812844458828      5.4422059314239259
   269   1      7.5387374792047686      10.041820050348065      3.5490512763883872
   270   1      8.8451931493723865      11.442445147725165      5.3280275312623404
   271   1      7.6596700184213802      12.569370364312679      3.6403408026138484
   272   1      9.2201099539460465      14.041769901228507      5.4180414932169425
   273   1      7.6420401164444307      15.228307682081574      3.6306600717656785
   274   1       8.904855435862423      16.534125973271362      5.4278835097063265
   275   1      7.4387071186479776      17.782567340062442      3.7322009362072368
   276   1      8.8222415130812575      19.124850021759272      5.4860020528402149
   277   1      7.5815661335233004      20.568382299462129      3.7002031721575133
   278   1      8.8436888037605375      21.448084546334858      5.5453567441980036
   279   1      7.7431293447851557      22.973343082054466      3.6896683002879884
   280   1      8.9774832102488809      24.305893296846854      5.5386196749113088
   281   1      10.252146805540514     0.11678591774697464      3.5140891900004139
   282   1      11.637562691223536      1.4728414330832464      5.3245803562437271
   283   1      10.147721239858685      2.6482182887665187      3.6717074390080429
   284   1      11.368451684340863      4.0799675682451895      5.3852700637697541
   285   1      10.253835250383965      5.1240360609169224      3.5423089271303305
   286   1      11.566371726100838      6.5502173637538101      5.2513184484556339
   287   1      10.296214220403439      7.6863667587814319      3.4664270888844633
   288   1      11.433744441570003      8.9486862345180018      5.3068158844918445
   289   1      9.9204284665854878      10.104887046911507      3.5070464401414383
   290   1      11.429016759806091      11.579438727645957      5.5343241860703802
   291   1      10.065571222105898      12.523569039952591      3.6406838474565628
   292   1      11.537656736048563       14.08790061275185      5.3590742359596462
   293   1      10.174644266295482      15.153292038014753       3.581048186802775
   294   1      11.356297158455062      16.535936172184446      5.3309185522095071
   295   1      10.215884099802082      17.989585277221007      3.6897795636452937
   296   1      11.382210418286579      19.115310485078204      5.6604904242686711
   297   1      10.015391347324464      20.387917048329086      3.7338307781709448
   298   1      11.309020426034053      21.744650209421025      5.4902683771295351
   299   1      10.103555929435609      23.074829208704827      3.6171232900985322
   300   1      11.316432911403034      24.601687343448919      5.5940528237821132
   301   1      12.841216413827384     0.13555822135154438      3.6554667852362432
   302   1      13.970319647435328      1.3222238384514706      5.5900011604141078
   303   1       12.61457959572077      2.6204112276207994      3.5737262461860064
   304   1      13.971019296755678      3.7895664890574183      5.3749413171989948
   305   1      12.990350487341088      5.0925427759683677      3.4855574813651642
   306   1      14.414106951287165       6.401435690247836      5.6239966703883209
   307   1      13.094575291305745      7.6156059948229968      3.5821356895707597
   308   1      13.951317543035817      8.6270343373904765      5.4547767692824571
   309   1      12.575282694009761      10.049885265981464      3.8726328750617398
   310   1      13.737937212919821      11.769972545876502      5.4665740336834734
   311   1      12.681765459320875      12.694306676302476      3.5932144253852596
   312   1      14.121057171395416      14.277600354195334      5.4863256672562919
   313   1      12.868095927850245      15.414026484984811      3.5568716821178339
   314   1      13.804327319701127      16.834116413633289      5.5194763704639529
   315   1      12.608730264870232      17.818909979758789      3.7630639228965372
   316   1      13.822719199444563      19.229050664990357      5.2889296838054083
   317   1      12.590895357344227      20.362207230112716      3.6971699035745464
   318   1      13.774626846088641      21.739589797017913      5.3909110083075333
   319   1      12.376903160511786      23.168490368271268      3.6448843896721481
   320   1      13.837191904523548      24.351411604034691      5.2684228068937822
   321   1      15.364249128401363      25.462206387772305       3.992611863218515
   322   1      16.580175125104251      1.4306203376172801      5.4065712479029298
   323   1      15.295098611544748      2.5946929516373447      3.5874716604706824
   324   1      16.564648200686371      3.8060924163573095      5.3719162537399381
   325   1      15.446380753801368       5.011608568801309      3.5815219394325819
   326   1      16.660445846917174      6.5136386936975423       5.542997271956315
   327   1      15.308478643303502      7.4109779884669855      3.5866606820875293
   328   1      16.459267705054945      8.8853850010628346      5.4178537232607527
   329   1      15.095119691155082      10.103721025297673      3.8267502272969818
   330   1      16.442315005997916      11.640408131474761      5.5968973194009299
   331   1      15.117383342181212      12.583810494581126      3.5825094139875788
   332   1      16.450295117360675      14.049231029866975      5.5096390627421092
   333   1      15.247159035284634      15.143993134901722       3.495891509672072
   334   1      16.609396604011991       16.55073982222315      5.2346918831614921
   335   1      15.261153765479778      17.798471258979792      3.5964880182789085
   336   1      16.561702903715368      19.173779749623336      5.0438335843911135
   337   1      15.218018929738685      20.569867987083509      3.7879014948797307
   338   1      16.464353368488108      21.877714957810493      5.4565457747860791
   339   1      15.468141908873855      23.107712514304982      3.6928703492747199
   340   1      16.713498025628311      24.347425091260142      5.6061868299897792
   341   1      17.732507672039642    0.025577586262601343      3.6837848533143109
   342   1      19.152149825166617      1.2063632692013639      5.4241123614095503
   343   1      17.950879979665878      2.7254778408948979      3.6664449798628347
   344   1      19.192201343955915      3.7234430630113295      5.3187253986939664
   345   1      17.917465986929614      5.1121128045535968      3.6085279096504439
   346   1      19.188193380543904      6.4942041236743817      5.4282291518623831
   347   1      17.757448186121561      7.7405449655047933      3.6406469450691907
   348   1      19.129688369511083      8.9042810398855625      5.3067191362263291
   349   1      17.673527612074903      10.390495114983766      3.5891673863143412
   350   1      18.995545076621848      11.356542084217677      5.4857691770102024
   351   1      17.746784732559671      13.001785430999394      3.6360120097245647
   352   1      18.975083135031259      14.045298959271856      5.4785903707148593
   353   1      17.648722824137042      15.343548982027462      3.3701618661377646
   354   1      19.005836035945165        16.5646209462071       5.313249616513084
   355   1       17.92717458301442      17.817406590407568      3.6505551348962038
   356   1      18.905378448694506      19.267889560364953       5.440695744374036
   357   1      17.844164571187143       20.81569972683754      3.6844563321963792
   358   1        19.0080697210228      21.766487486564372      5.4896239673016147
   359   1      17.844098440862592      23.126412947604024      3.4917632340042122