dump/Cu_720_0/steps_11 (written by ASE) 

2000 	 atoms 
1  atom types
0.0      25.526554800834361  xlo xhi
0.0              25.5265548  ylo yhi
0.0      36.100000000000001  zlo zhi


Atoms 

     1   1     0.33671730114285436    0.071854808393572736     0.22657600909446943
     2   1      1.3578452366965279      1.5311224329313782      2.0177645710524539
     3   1      25.420561601157022      2.7567983816384252     0.15639570981037421
     4   1      1.2915269927015796      4.0011512444813366      1.6649739244031256
     5   1    0.031344875913055459      5.1907265150189223      35.929136424150585
     6   1      1.3406696007720353      6.5873829428573689      1.9317607484613646
     7   1    0.013125992259533257      7.8848656522202925      0.0906054021347132
     8   1      1.1419460638779264       9.149259364024779      1.7284408579368242
     9   1      25.518775810744899      10.362026923667067      36.017893003787059
    10   1      1.1667249037784366      11.698190682611628      1.8368044544708131
    11   1      25.423542763064624      12.739896466902568   0.0066870363485577464
    12   1      1.2397937937840795      13.863827166026319      1.6961808224491044
    13   1      25.433020190385943      15.552533422067883    0.060482809270240606
    14   1      1.2741406355312384      16.491357633296456      1.9356491960159252
    15   1       0.276654698081295      17.917943996635472      35.951325368976875
    16   1      1.4297596345502672      19.028586862713002      2.0777830778103992
    17   1      25.387998263570736       20.51051773708204    0.055465082360797197
    18   1       1.135192357850149      21.517316064791817      1.8230101439837778
    19   1       25.43742794989565      22.975194528039768    0.063684082656936841
    20   1      1.3578915512673706      24.181399797913198      2.1547594994097734
    21   1      2.6791561976164995    0.075407784719650151     0.36634930096680635
    22   1      3.7245666848042167      1.3200530887542294      2.0104835648951518
    23   1      2.4877787271596477      2.6730593567658834      35.928544114569277
    24   1      3.9102143209537181      3.6925702539569638      1.5911936316501065
    25   1      2.7732399715042422      5.1304113819643122       36.02212148485399
    26   1      3.7970562193982684      6.2468562971809973       1.747520505299917
    27   1      2.5060797412225724      7.5960240810358446    0.055750087791955005
    28   1      3.7059838498219397      8.9397254951700997      1.9062955019382788
    29   1      2.5042041278526619      10.269011138320325      36.042618085885742
    30   1      3.6142272417058625      11.645177241534038      1.6446442695833419
    31   1      2.4638438859326421      12.731013026789626      35.984458522481923
    32   1      3.7320995555453522      14.071610862701222       1.866233303135401
    33   1      2.5010490829110434      15.379712630215923     0.10174780828149312
    34   1      3.7335515639096042      16.558634656704683      2.0753992163859256
    35   1      2.6782740951559054      17.904809490344654     0.19576995540610387
    36   1      3.8626530825128604      19.238669474895588      2.0187299348990919
    37   1      2.3783521880096998      20.207725253175642     0.13299877935243101
    38   1      3.5912208578630889      21.816831204940545      1.9931860355653259
    39   1       2.554419577003153      23.246758302952646    0.078599160987835134
    40   1      3.8519608108404091      24.232537216027985      2.0114244473112555
    41   1      5.0917028847351409      25.429673250604278     0.15611876634820859
    42   1      6.4876175207288398      1.2687252632261798      1.9607836701095394
    43   1      5.1321776227134883      2.3082088832041063    0.085902172168948826
    44   1      6.3969686700490689      3.8244834114762405      1.8387133199586758
    45   1      5.1856163030349913      4.9647186128495795      36.088020112518372
    46   1      6.6747626060054399      6.4494686671246013      1.9736119414006128
    47   1      4.9947604543183806      7.7350751357885592      36.083701130145627
    48   1      6.3871558647578626       8.827096301815649      1.8484507504941006
    49   1      4.8977243924266203      10.037470664689712    0.017003194043445545
    50   1        6.21462841140933      11.462414432481896      1.6639079465167934
    51   1      5.1019099309880609      12.813586566413735      36.031619723455968
    52   1      6.4081100577124976      14.066829307225726      1.8588248613488891
    53   1       5.110073666325107       15.46306700386385     0.18662739024626954
    54   1      6.1921174468539633      16.660301211430351      1.9942851481486525
    55   1      5.0265141578862202      17.802771174553015    0.099030132029213291
    56   1       6.253018969723148      19.079437671063076       1.893842385406741
    57   1      4.9380864244716802      20.307972795464124      0.1760603730046226
    58   1      6.4495543003190869       21.67627041962108      2.0698593931375617
    59   1      5.1027309590987713      22.985846361964491      36.096446096511393
    60   1      6.3376699295608008      24.425751024173859      1.8939067717845535
    61   1       7.640483005091073      25.460528560577814     0.15808301726902968
    62   1      8.9299984771192342      1.5533062156533113      1.8805690104564412
    63   1      7.5712649165686159      2.6449061699438787    0.059954164967018796
    64   1      8.9518466807959296      3.9199961028788404       2.126694752682817
    65   1      7.6322805003043062      4.8448023460262029       35.83515258339343
    66   1      9.0975847335399642      6.6013260024856741      1.8367017099010914
    67   1      7.7637079938762916       7.553534060862817       35.94385445710882
    68   1      8.9388346832829875      8.8938684371242136      1.7572647609368568
    69   1      7.3499976068085973      9.9529292495626134   0.0046133353087839174
    70   1      8.8128259407045721      11.431114864747473      1.7405478748575645
    71   1      7.6121737126271976      12.607861497989713     0.13515520805605108
    72   1      8.7927943992421831      14.024946712430653      2.0010905906868399
    73   1      7.7539945006016131      15.015264417654723     0.15457653576113445
    74   1      8.7319628477011211      16.714037698397942      1.7596620843628774
    75   1       7.528402675460411      17.948047537383072     0.14716514223983945
    76   1      8.7378448309272461      19.289693402155422      1.7422110407909273
    77   1      7.5250809908771679       20.78121024942963     0.12513156096697448
    78   1      8.8810844991541718      21.874151031256705      1.8276958377843133
    79   1       7.378332082891033      23.081564785895822      36.073158405431236
    80   1      8.8972941287877134      24.391803348891628       1.937494630945036
    81   1      10.067667422479843     0.13537946598791625      36.019847980988466
    82   1      11.302802198589799      1.2684880440192901       1.709079971815151
    83   1      10.001986537076784      2.7319987792169811      35.990425260137627
    84   1       11.32062033592708      3.6868206221498978      1.6800073977687262
    85   1      10.177807178367861      5.0918008019492689      35.951026884766627
    86   1      11.588537242320278      6.1351427091819506      1.7014505821593175
    87   1      10.216694531367475      7.6310403989365438      35.992828326275813
    88   1      11.633583845403173      8.7517907188063457      1.8290808567625261
    89   1      10.063087736444881       10.24252000534379      36.041333242968477
    90   1      11.330394739020894      11.277875222121686      1.8917130756548308
    91   1       10.08443314979437      12.900943336935487     0.13254079687121695
    92   1      11.359773263140573      14.158175201075107      1.8743281286903668
    93   1      10.213244648369445      15.500920946767783     0.20749506009717592
    94   1      11.507069321322518      16.686871225760726      1.9636113091889229
    95   1      10.114567778444018      17.869297441692932     0.18568766190163599
    96   1      11.393154717963245      19.285754825834317      1.7915680152110232
    97   1      10.060352687766692      20.635025437234585     0.12080202714902255
    98   1      11.508915522695292        21.7320326998158      1.9488754317145536
    99   1      10.016574906613304      23.021370269435753      35.978830197902418
   100   1      11.313945881430755      24.309783737170758      1.8626884209664245
   101   1      12.608337492549241      25.351041787948599      35.967212852002028
   102   1      13.838989111918753      1.3256699111174051      1.7214173794707919
   103   1      12.633313467440772      2.6943987510886802      36.097558428702271
   104   1      14.033329463642717      3.9112709019846013      1.6423789732262208
   105   1      12.849628931932173      5.2015407896797257      35.515782222350438
   106   1      14.114158155061306      6.3578608815181648      1.5808750114162315
   107   1      12.850551234295303      7.7100587554733293      36.091629153751661
   108   1      14.067846202886008      8.8688507081731451      1.8809253092395108
   109   1       12.66740152109741      10.029024032617931    0.083230489526681772
   110   1      14.065061429289312      11.314210430888958      1.7920743071239469
   111   1      12.676064866957347      12.700763366738768     0.14704214873513574
   112   1      13.941297363596576       14.06046409572475      1.8958471534867714
   113   1      12.744838023936421      15.419887472652812     0.20486394811099451
   114   1      14.040165011417557      16.586968050240685      1.6970152913537162
   115   1      12.715492391914784       17.98498232857148     0.30832506649726377
   116   1      14.111142103335091      19.112109481645319      1.9655167411828296
   117   1      12.815987341657165      20.523147491181188    0.027062455827319792
   118   1       14.00913886264339      21.585736214834551      1.8837334433249788
   119   1      12.360415855301611      22.952674201743406     0.14184501946220954
   120   1      13.818808142843862      24.044574673952848      1.5720016829712915
   121   1      15.297321404879341      25.399377334055171      35.926469404964621
   122   1      16.342646021830546      1.2783715283629453      1.6949376223601356
   123   1      15.328516325279713      2.3216051110738576    0.019415555894886426
   124   1      16.650946809700692      3.5991679444249276      1.7114970576562307
   125   1      15.346232679031591      4.8543985595045642   0.0020658858992533154
   126   1      16.614686067533111      6.3381929538728912      1.5723849448653824
   127   1      15.362767138988964      7.7848987033200858       35.96059671748295
   128   1       16.69931701159733      8.7599161977642162      1.8724870592007512
   129   1      15.265344948035375      10.115477000864471      36.088762566953818
   130   1      16.574878678823772      11.296425430346883      1.6907308748762813
   131   1      15.360064850734862      12.599858594353748     0.13976780752935838
   132   1       16.54110277138831      14.066313101448706      1.7979151710806955
   133   1      15.396392613126775       15.30459578611617      35.972451051259846
   134   1      16.635206167008516      16.327663619881452      1.6611511162804056
   135   1      15.195196864956506      17.814869408952813     0.20517631276809425
   136   1      16.576329340688119      19.228924311006356      2.0325674674598528
   137   1      15.295652933509295      20.295321988724048     0.06294031268877244
   138   1      16.505867025064099      21.907195700242102      1.9400145765659877
   139   1      15.229121686225605      22.946917569431079    0.024974011852850701
   140   1       16.46927364345936      24.366180229662817      1.9250528278885677
   141   1       17.95757877112128      25.359471182012257     0.13585889812758312
   142   1      19.223277971355962      1.3608652914981143      1.6805417868115342
   143   1      18.116293721114378      2.7444228269202036      35.815868537746987
   144   1      19.046487492381882       3.702218223936725      1.9898013622092552
   145   1      17.911753859921102      4.9868358202027609     0.01514540530047271
   146   1      19.164358254498353      6.4562290544918053       1.928438089213681
   147   1      18.032999813553236      7.5380199568159414      36.032519511652502
   148   1      19.046829545498483      9.0454316469302771      1.8758492531981468
   149   1      17.797663844447904      10.083410228026757      36.022655437725909
   150   1      19.083936535081623      11.468639622594468      1.7793835251031618
   151   1      17.817458702108219      12.459379121064504    0.035802859674754488
   152   1       19.21735120840086      13.758152657390006      1.7544006043069535
   153   1      17.786283335596565      15.200468899419377    0.064682508123053303
   154   1      19.169816331519691      16.406311439511146      1.7468454686354911
   155   1      17.805401491831542      17.855521905642355    0.043085786634628725
   156   1      19.105382078211584      18.904518052685734      1.9321203887574132
   157   1      17.804635616825841      20.327260473355153    0.080203005123644464
   158   1      19.087779541111395      21.555401195296358      1.7302377096828894
   159   1      17.889293422081199      22.956445210280101     0.20463465615309825
   160   1      18.845516834953663      24.142949930545981      1.9985187219006872
   161   1      20.368442000526201      25.368579496456828       35.98170835009288
   162   1       21.47501074431554      1.1787996031376347      1.8197328350005133
   163   1       20.53314703633999       2.406481874657151   0.0089089883709675809
   164   1      21.682296303729249      3.6971386021713917      1.8145086940446062
   165   1      20.372259318845511      5.1731205586362892    0.060564751508832199
   166   1      21.580074063210656      6.4016772693215582      1.6450421922563574
   167   1      20.402349791918095      7.8301552385700148      36.050121304427073
   168   1      21.713971653515458      9.0075564907027452      1.7562601837855272
   169   1      20.501999009872382      10.503035150864147      36.002292176833322
   170   1       21.63062721687951      11.592433835281177      1.6738649175001896
   171   1      20.280380104718532      12.962248660950083      35.966808305865783
   172   1      21.542786558047187      14.161255296311335      1.5201249717178611
   173   1      20.206426531703322      15.492329290654945      35.941650095321037
   174   1      21.747344389657922       16.63751757003115      1.8456405115620322
   175   1      20.406433641428677      17.990991857643561     0.21009583083031205
   176   1      21.719541628593333      19.221984959131806      1.9587295963410849
   177   1      20.509316773626331      20.480682049001388     0.23121638130179464
   178   1      21.662414184284266      21.689308031921776      1.8808650825259874
   179   1      20.394426144114139      22.888867963271426      36.028784163996818
   180   1      21.714845753720834      24.127701499422759      1.7028370572744838
   181   1      22.977701666368443      25.501097867987266      0.0964366547609984
   182   1      24.156739643055538      1.4708125944130594      1.8615445629637648
   183   1      23.086707009888141      2.4474772985382871    0.066952590979281162
   184   1       24.13393769420469       3.913138719250965      2.0027192413385366
   185   1      22.935140973987107      4.9722239942077877     0.10335479945774759
   186   1      24.178788099165764      6.6087209914144527      1.7944857772992238
   187   1      22.750957172402522       7.801280208617305      35.948567875738327
   188   1      24.154317880865438      9.0124856112019192      1.8607427666720036
   189   1      23.127835924646721      10.192657633462712    0.071565253446340099
   190   1      24.228070225603577       11.60889967654472      1.8362731588115149
   191   1      23.070233667779224      12.827022553941758     0.01695346864565862
   192   1      24.470277387290992      14.202189498567277      1.8421169291363766
   193   1      23.077462984621949      15.241332178503507     0.10444411440932984
   194   1      24.104620591013116      16.630630064406244      1.6907316383364202
   195   1      22.978261515536875      17.765637270124223    0.032686650876860304
   196   1      24.162786579490806        19.3487726326026      1.7953183645953679
   197   1        22.7677522274682       20.49492806245728    0.021682492346803903
   198   1      24.099716718331145      21.713412932040683      1.9183732979992449
   199   1      22.809276199852594      22.753848697946061      36.001143179369144
   200   1      24.384133545653629       24.35132766821523      1.8688456681211507
   201   1      25.414225249503428     0.15345714697979668      3.5786471140521834
   202   1      1.4231994220276194      1.3082457758992563      5.7009172857167307
   203   1     0.17508286531850756      2.8191651643025608      3.6934413092130618
   204   1       1.664924905201187      3.7196146984187304      5.3851383665387695
   205   1      25.369371999917067       5.266524463236097      3.6466308422799218
   206   1      1.2717395401973546      6.6534640719684619      5.3035810632325342
   207   1    0.052063643018693435      7.7681802868159657      3.6526319009150723
   208   1       1.453536603741223      9.1155953950606854      5.1690760258443538
   209   1      25.379488171012859      10.578113043800492      3.6438765981444901
   210   1       1.213886366862448       11.70741989238233      5.5119642450949087
   211   1    0.073611628881572133      13.014822088635581       3.566298858847051
   212   1      1.0788349030728017      14.204437913321106      5.5169849533788877
   213   1      25.316782758696366      15.321709621575337      3.6733396716398468
   214   1       1.111006660018879      16.824281908112763      5.3905845195475806
   215   1      25.377537985580702      17.979698334515561      3.6237637351741849
   216   1      1.3267409770670144      19.024884458803417      5.6807396714448002
   217   1       25.35823066821354      20.492716030689294      3.5770408891145395
   218   1      1.1406250962379134      21.632064734292697      5.5902789700044435
   219   1    0.076829088262413608      22.775462103041736      3.6599682698301823
   220   1      1.2838521558905218      24.136826464048276      5.5440678029911172
   221   1      2.5365399945522094     0.21391464146863351      3.7772021740270731
   222   1      3.9601513290785944      1.3673980665320289      5.5838986921522773
   223   1      2.6592533879568281      2.6604367779788642      3.6567605403698975
   224   1      3.9378313633418678      3.8754392278347818      5.5746834274996644
   225   1      2.5634389182182247      5.1194119606149364      3.3789958663141086
   226   1      3.7963664335144713      6.3660564092187926      5.3840290545163825
   227   1       2.436366917511922      7.7352755714332613      3.5777421098876392
   228   1      3.9050906884980976      9.0304319684778012      5.3880770577663979
   229   1       2.557302533092749      10.368981412225169      3.4224606948811824
   230   1       3.963650284957561      11.534504323532881      5.5683018643475739
   231   1      2.5712505146976912      12.872141515772826      3.6954932429259113
   232   1      3.8279163489710375       14.02474961890969      5.7011205177066291
   233   1      2.4659838344236618       15.23057844858603      3.8735499745026969
   234   1      3.6577260224173607      16.585906655894373      5.5098982887817014
   235   1      2.6970874472587658      17.760218826554837      3.6726991323180842
   236   1       3.837043543620807      19.206586438958833      5.4131936086293955
   237   1      2.6089200146544496      20.216711072107113       3.790166644609843
   238   1      3.8945957578610289      22.042480719803144       5.470021133478137
   239   1      2.4925635976017948      22.805792678629608      3.8758251295276591
   240   1      3.8592020633020443      24.436030406383509      5.6174562325537671
   241   1       5.028471959276704    0.059942241077861919      3.7431288471519144
   242   1      6.4695203129468446      1.2735908421741264      5.3376727510359094
   243   1       5.100888588334489      2.5194722337424138      3.7789285408293884
   244   1      6.4582325873235469      3.9459200539423689      5.5128555872817824
   245   1      5.0324768119092633      4.7821385257414386       3.591865201460394
   246   1      6.5369108006789114      6.4154943368465194      5.3577498563124442
   247   1      5.0697045904590263      7.4761556274890788      3.7443891010518282
   248   1      6.3455532980219784      8.9810939349535062      5.4258776455990381
   249   1      4.9189199320804518      10.429646031409042      3.4093588535625714
   250   1      6.4376041408298414      11.604042365538962      5.2845170105966881
   251   1      5.1379795008505385      12.893114923251726      3.5450239487391522
   252   1      6.4025739491658218      14.130320355063709      5.4621825478971999
   253   1      4.9914567572804058      15.332936452893428      3.7287176375244946
   254   1      6.2081957305651168      16.468361018232443      5.3776304976331808
   255   1      4.9854904140997522       17.96282884775809      3.7092664788736198
   256   1      6.5666004225470802      19.319437376050349      5.4718110729229625
   257   1      5.0584054478275755      20.580071724823704      3.7282432895464805
   258   1      6.3188543696026045      21.937408189152595      5.5197439964324051
   259   1      5.0711021861053194      22.955297823724841      3.6314106371997008
   260   1      6.5067247765117964      24.363982269900699      5.5870739937966869
   261   1      7.8888864700895791    0.016014037142343576      3.6729745197044816
   262   1      9.1502628076771479      1.2539378536274559      5.6481747294909592
   263   1      7.8159535220812169      2.6143498077121885      3.8333564557746858
   264   1      8.9596075782197744      3.9110519133740853      5.6644785192583331
   265   1      7.7123834646182017      5.1741613636339139      3.7376079334958816
   266   1      8.9571052920553011      6.4601689232915058      5.2285118261084031
   267   1      7.6570413163957518      7.8741454595635219      3.6608076070203208
   268   1      8.9661667488660282      9.0383124415888094      5.5874696733561606
   269   1      7.5375623850774174      10.333192798030364      3.6333849667801665
   270   1      9.0775244278142768      11.379603254936811       5.347690801924899
   271   1      7.6984073319147637      12.737196296665628      3.5604575003550845
   272   1      9.0387226236683791      14.036346466884432      5.2094727305676836
   273   1       7.520186980444806      15.354963435697789      3.6351437071217529
   274   1      8.7922318142486109      16.591754668867537      5.2899487280552204
   275   1      7.5772416259689175      18.053473743578781      3.5814966474351082
   276   1      9.0108222538341547      19.217848013761923      5.4773796270309294
   277   1      7.7578380730995757      20.535752255459592      3.7177178520921821
   278   1      8.9421898982752239      21.643207735503687      5.5038736186158577
   279   1        7.75115134804612      23.071382885753042      3.6247299980309902
   280   1      8.9919866750002306      24.353986515343749      5.4918936188995549
   281   1      10.177403195660556    0.034009203585576332      3.6706977144845494
   282   1      11.667068374679166      1.3324852094178423      5.4979533059864485
   283   1      10.213831302145206      2.5454367368760225      3.8678295445318995
   284   1      11.522815017136637      3.8339384766515368      5.3267618309002298
   285   1      10.361577611065387      4.9481159457919235      3.6073375138717312
   286   1      11.449076514101925      6.4591340489936089      5.5060927759343752
   287   1      10.393390772472221       7.612757682098362      3.6197950307891422
   288   1      11.579734751079705      8.7465096305592791      5.4039535504667873
   289   1       10.11688030306885      10.019711166127948      3.6045964885661417
   290   1      11.462060337918224      11.173918575125871      5.5162577004553599
   291   1      10.250780841543467      12.644411999239278      3.6167263267617971
   292   1      11.563886560040674      13.885752397100916      5.1665818822654908
   293   1      10.084687294236952      15.468030382175369      3.5539759219343283
   294   1      11.445775744530668      16.598796728018559      5.2742554820403713
   295   1      10.181789193011241      17.769797910523401      3.3540733466390389
   296   1      11.530570986191155      19.106114116794114      5.2345132789828837
   297   1      10.159599187058108      20.461287543132332      3.6889743525454928
   298   1      11.460514763586605      21.690748586390072      5.4596153789686213
   299   1      10.140125606347269      22.848934983959229      3.7288730898104974
   300   1      11.605959107600496      24.281733897555505      5.2472108084515989
   301   1      12.787384182212389      25.419146155629793      3.4880260482496177
   302   1      14.188904006689432      1.1979587130080158      5.4931768964883405
   303   1      12.719415520892765      2.4870536715041598      3.5538839531375874
   304   1      14.085042876363747      3.6751479319756544      5.4353491578347128
   305   1      12.732462226407566      4.8301633435661051      3.5743949976590108
   306   1      14.028195242108707      6.2695910917618729      5.3430433652118943
   307   1      13.170807206600809      7.3889199059705968      3.5187150928027573
   308   1      14.128209250172208      8.7759316068021693      5.3120635445419415
   309   1      12.748667013363022      10.209298441012393      3.6710056340991395
   310   1      14.034790830301132      11.552391808280863      5.4323703111458261
   311   1       12.66956767384629      12.675581060005918      3.6738360946821595
   312   1       14.23831807499667      14.038951549107185      5.2175554947665805
   313   1      12.693474374840015      15.432345275597179      3.5995973265461334
   314   1      13.981196488193065      16.553454889908689      5.2443199164181822
   315   1      12.739769971416839      18.137538948307665      3.4688750203061764
   316   1      13.781820131953468      18.945267985482637       5.485003803562889
   317   1      12.744793629844132      20.407756536469059      3.8645339223182256
   318   1      14.035021521346412      21.519363347267863      5.6598245785563748
   319   1      12.671120129284828      23.086464832743015      3.4609286092902396
   320   1      14.004280890336615      24.147387404801503      5.4179836366428002
   321   1      15.215774776800606      25.455119028197885      3.5976763248558297
   322   1      16.575707203153467      1.1168440588473152       5.313853715724508
   323   1      15.449327859096048      2.4093604625568101       3.575416529507415
   324   1      16.663771553164246      3.8072271321476681      5.3112571524970642
   325   1      15.289431380860174      4.9039817442733726      3.3498253455120555
   326   1      16.592210296695846       6.170416642397651      5.4103954050908722
   327   1      15.511029759421788      7.2422336964098495      3.7297944771030309
   328   1      16.795071721668048      8.8850826309879469      5.3830499863008647
   329   1      15.523165706786461      10.271521693416478       3.567563731577398
   330   1      16.699554273443798       11.58341392080165      5.4165544009265378
   331   1      15.195206592110679      12.727849371280257      3.4991460339027514
   332   1       16.79724203018375      14.006671220636736      5.3273590960837236
   333   1       15.31841941923761      15.410657506757353      3.5681759140211176
   334   1      16.579491170841848      16.492128765033627      5.5491912172376185
   335   1      15.310540758089195      17.913118971025789      3.6108391310463612
   336   1      16.408514654660571      18.927432063705254      5.4187590877688949
   337   1      15.172341330281435      20.500381901665332      3.6876781170939403
   338   1       16.53500986783105      21.506253824291484      5.4207444307945769
   339   1       15.16624934190359      23.077610147255733      3.6794430605322548
   340   1      16.621083915016321       24.08070965449248       5.547907181138231
   341   1      17.763615284986052      25.446183360299138      3.6214856636070474
   342   1      19.325088718664471      1.1565087445343945       5.735541529341762
   343   1      17.873189024533712      2.4639610564184982      3.6390722087253344
   344   1      19.174533819459278      3.7534036138632705      5.6542073568728819
   345   1       17.76156533043088      5.1162767370918703      3.6904202680870859
   346   1      19.136722172958049      6.2957138690923786      5.5049512150428423
   347   1      17.883680743618225      7.5134960801704107      3.5514604569466068
   348   1      19.229716576434136      8.8036797015769448      5.4902433542006417
   349   1      17.893404580148761      10.193323606938643      3.7233289662587246
   350   1      19.228614029122681      11.451430429870459      5.4166354624263873
   351   1      17.732125717848707      12.528492412826825      3.4557171659359036
   352   1      19.010197443537759      13.899542454531403      5.3909568698929089
   353   1      18.084676465623598      15.020417741416436      3.7241331626620724
   354   1      19.257312506782572      16.324543411980716      5.3892115327493961
   355   1      17.609784867329445      17.557471079422175      3.6193841973232521
   356   1      19.097721370953725      19.026854391589733      5.2266969442446527
   357   1      17.757917348519854      20.363734996648081      3.6154939354386166
   358   1      18.999943198481869      21.683530776510086      5.4741768365245314
   359   1      17.639758719689713      22.885746808625839       3.727717101125386