dump/Mg_700_20/steps_71 (written by ASE) 

3980 	 atoms 
1  atom types
0.0      32.100000000000001  xlo xhi
0.0      55.598830921999998  ylo yhi
0.0      52.130399999999995  zlo zhi


Atoms 

     1   1      32.016961114359866      55.416542401915926     0.18341068331651153
     2   1      1.6242712308861542       2.537508276285362     0.15147605780189582
     3   1      1.4668707348656087      1.0619228835307615      2.6628960755077768
     4   1      32.029266366715845      3.5750114069361114       2.599231487349102
     5   1      32.004894802238937      5.5886145889500796     0.13960127426757721
     6   1      1.4114375610306651      8.2534341153034472    0.058925445513693851
     7   1      1.6039652945085776        6.37226890379275      2.5222787346076845
     8   1      32.093325621857055      9.1285957679241871      2.7712668196418391
     9   1    0.088406010611232405      11.296944136579773    0.059750325920173944
    10   1      1.7123209318935138        13.8651019793902       51.97947106759959
    11   1      1.4762126272175473       11.87915387586632      2.6847587803833664
    12   1    0.050762571016958968      14.749463930856255      2.7202883196106442
    13   1      31.759376370952431      16.517080016289064   0.0054217142599171982
    14   1      30.794474053223546      19.811264128223783      52.069698418711425
    15   1      1.4022691139210912      17.434141908893125      2.6529620442984378
    16   1      31.966446706829338      20.345697170714629      2.6087742818096378
    17   1      32.052988587293093      22.629516291154189     0.24640251950936001
    18   1      1.4114964186339352      25.134367519170326      51.949700803312773
    19   1      1.4739361505421484      23.121625709925524       2.787499455555337
    20   1      32.068948855541848      25.953625210001633      2.7081512381463475
    21   1      32.009468845568492      27.832764829948932      51.964777122898639
    22   1      1.5121996096514001      30.464860133099414      51.906987651126649
    23   1      1.4421871535612618      28.671551295274195      2.5863494701098242
    24   1      32.067781458572831      31.137436787373659      2.6873494508581235
    25   1    0.062294013586986011      33.099538079187823    0.042908599117573699
    26   1      1.4959265876734147       36.04105724136268      51.796899472257266
    27   1      1.4104343172150047      33.949196568217339      2.8827140676862104
    28   1      31.580542041980213      37.100146536896744      2.5279069741001146
    29   1    0.076892975324409307      38.716680754985667      51.991593107904585
    30   1      1.8359289289884191      41.438527846805655      51.991780870006757
    31   1       1.539671080101485      40.098706551544822      2.9246602228502896
    32   1      31.941628718055235      42.386792972263763      2.5386650798546135
    33   1     0.23175546310141637      44.181168114208162      51.882636910846024
    34   1      1.8470337710660449      47.335338510671527      52.130361389164662
    35   1      1.6102403869503201      45.367163216026533      2.2827461409864087
    36   1     0.06309574903936277      48.326690870895469      2.4265842815617527
    37   1      32.070107688061597      50.185918940732421      51.951364569171702
    38   1      1.7496735765611857       52.76749180309438       52.08835038509109
    39   1      1.6049695283739689        51.0417970875245      2.5640252846818439
    40   1      32.003701170200223      53.833610961685146      2.6489920894359602
    41   1      3.3285834130450671      55.383222539212412      51.873549598733817
    42   1      4.8680445808797375      3.0320321020349703     0.42021942101729703
    43   1      4.6741277981567464      0.9050047211344121      2.6871785682006446
    44   1      3.0484691463059552      3.6594313941488217      2.7561904230316951
    45   1      3.0553515815206462      5.5247816082959824      52.019655328607421
    46   1      4.8643804509040036      7.9129689885590313    0.055444797371287442
    47   1      4.4906289909021879      6.5474041677066781      2.8520851430850591
    48   1      3.0927421413030296       9.165270208464074      2.7073646042767057
    49   1      3.1277107684659211      10.915506120700959     0.18150826876745657
    50   1      4.9897991459951783      13.861661650593707     0.37649626337515585
    51   1       4.884513980866136      11.713710784799543      2.6909649666828819
    52   1      3.2974610068606283      14.515550956110491      2.9838034218360718
    53   1      3.3371517479105148      16.374631249426937      52.072979258053898
    54   1      2.1019816141698189      19.550256574584942      52.113935114705704
    55   1      4.8579560044384529      17.324798259605682      2.7884239377007742
    56   1      3.2856276597941156      20.347209518418964      2.6458424251885861
    57   1      2.8416043050348252      22.352500634028555      52.082006099002285
    58   1      4.8602430328262534      24.768150597594417      51.965030089313075
    59   1      4.6204746914724568      23.047035349207324      2.4633551815746291
    60   1      3.0802365741229343      25.789708097177975      2.6769241398056387
    61   1      3.3031385827770841      27.553430705796416      52.067985416168909
    62   1      4.8455193077332543        30.4251314150236      51.985692724717772
    63   1      4.6676152306345804      28.528603422972516      2.7025964984335795
    64   1      3.0575424199875911      31.445736682381479      2.5021581022423431
    65   1      3.3381697474211642      32.936136880550748      52.076575322125812
    66   1      4.6854734778673741      36.191531107578818       52.09934899974634
    67   1      4.2995136890094878      34.560884500854705      2.6464978033177315
    68   1      3.2842657776785131       38.98384779034054      5.3442722952092199
    69   1       3.025251321680734       38.88850761673141     0.11136844570018919
    70   1        5.00231460275372      41.412910567732276      52.043745660330252
    71   1      2.5957394168352632      37.223970644099992      3.0528974186167797
    72   1      3.1402910728995299      42.668126657193334      2.7528448074954062
    73   1      3.4405242684957389      44.321692844469901     0.11401631723974616
    74   1      5.2082391618540251      47.029232535205821     0.35016416781953663
    75   1      4.7177937489704735      45.306079380838675      2.7596679614235669
    76   1        3.00856820691329      48.027710002265046      2.5866646065841863
    77   1       3.244650847104162      50.040492898383754      51.933750157592961
    78   1      4.9899147142540965      52.651642155207398      51.935153583950125
    79   1      4.5902072645122747      50.749723253460388      2.3550171889840406
    80   1      3.2586946731813184      53.750040276493962      2.5981896167496612
    81   1       6.316266398644502      55.591919897896268     0.12454704351682802
    82   1      7.9327399173610127      2.7596293581899278     0.32934829271231936
    83   1      8.0912968933640652      1.1750469198040721      2.5945809980369541
    84   1      6.2265933868832253      4.0543455866856668      2.5590471970819415
    85   1        6.55612243090631      5.3272213768159995      51.855771164388017
    86   1      8.2321913383372021      8.0052473581370442      52.030608744052465
    87   1      8.3140540793672759      6.1142234968882434      2.5181935372025603
    88   1      6.6352434583676301      8.5788786359634095      2.5012171551959268
    89   1      6.6280789931196828      10.686369585115305     0.11611451058575829
    90   1      7.8153290299400124      13.847824179448793     0.32069309368135362
    91   1      8.2052688291214544      11.547017221653732      2.4045732706447431
    92   1      6.3211086331032122      14.767658288596577      2.7410157993554689
    93   1      6.7461546646817823      16.788300104561873     0.24095826039371926
    94   1      8.1828000477427754      19.745314933310087      52.105329923967204
    95   1       8.190364971510105      17.849178170260839      2.8631668419654295
    96   1      6.2178040553141409      20.478963710265315      2.5418877526603501
    97   1      6.3023902495817063      22.432674441018928      51.942220349868137
    98   1      8.3552055692134939      25.260167312869395      51.925934594453715
    99   1      7.9734077804709331      23.231001040110755      2.6485120033340066
   100   1      6.0879936230890461      26.022953095676726      2.4902906900499815
   101   1       6.362610844975328      27.724328497679736      52.097294935917411
   102   1      7.6955675678097757       30.82401585854484      51.965621224059205
   103   1      7.9190406292678368       29.09445539589796      2.4741725339333955
   104   1      6.0783790197834291      31.812116980241196      2.5093992247335293
   105   1      6.0565215060727864      33.587572087209132     0.16873317061831097
   106   1      8.3544161236504184      36.176457977563686      52.124568724822005
   107   1      8.1972591798883716      34.143942903067341      2.5545679341251253
   108   1      4.5485045719915513      40.058046280294256      2.3439732127165591
   109   1      6.3631228421112587      38.704304116511466     0.17808401451876293
   110   1      7.9536202434985688       41.52959033417379    0.077209465535344843
   111   1      8.1620125066118838      40.121216521169764      2.6174436290391911
   112   1      6.2645012335927825      42.525854913354166      2.6081213721556638
   113   1      6.5301477813628646      44.350236855005861      0.1179012913693841
   114   1      8.1643435099288837      47.211426108673621     0.17736857748781085
   115   1      7.8411119219139023      45.258835938712167      2.5492480389777405
   116   1      6.4342477962150815      48.128219149804721      2.8710246439724258
   117   1      6.3247512152950334      49.881887162949198      52.041335780174158
   118   1      8.1983284156940623      52.528647756550029      0.2580058536583148
   119   1      7.8771499474755204      50.890591433322115      2.7743832164700359
   120   1      6.5664029416331422      53.841393714511504      2.8524052567450351
   121   1      9.7462971402889949      55.216662461588491    0.051348379958546769
   122   1      11.289209914188007      2.5184786044687333      52.053066038527156
   123   1      11.463610751042623     0.85611321116974626      2.7005433686807514
   124   1      10.013369098216478      3.3935453748384692      2.5162818822051838
   125   1      9.7769907061100323      5.2715416683967327     0.27958376893890169
   126   1      11.396318718487059      8.1989575924236888     0.10685137931024903
   127   1      11.622707088109451      6.3130431055146392      2.5650323419122101
   128   1      10.055332286051259      9.2338608353326705      2.9688455699479452
   129   1      9.6949284227843577      10.915590626882429    0.082394549883305843
   130   1      11.160174641863293      13.811784811103088     0.35549083313840579
   131   1      11.344143839024859      12.070557094467853      2.6064655632253291
   132   1      9.0907285627438927       14.92232926431403      2.5472812492631185
   133   1      9.8464827841406404      16.390125570492472      51.973702150998847
   134   1      11.243036864253671      19.277468654538534    0.090611650187331319
   135   1      11.011057283785762      17.655999208296702      2.4426536825557918
   136   1      9.7105418791516964      20.535809028256505      2.7977763882329691
   137   1       10.14238540848784      22.347154337934185    0.083599029233586794
   138   1      11.553671196112319      25.032390677905404      0.1927099003063282
   139   1      11.228116641387997      23.312153012417948      2.7107559538934614
   140   1      9.4993549629730083      26.110676890352131      2.6568262475755229
   141   1      9.2572072174772213       28.05244946450803     0.15978347059150044
   142   1      11.365927207252881      30.554229327643171     0.11824821058160193
   143   1      11.260784200564963      28.805829609937007      2.7151615163979672
   144   1      9.8906810508579479      31.428200119835957      2.5554003530020002
   145   1      9.6184453212265382      33.381409651373062      52.059949795795795
   146   1      11.313891578004743      36.178998945724899    0.026549903587438698
   147   1      11.373211096926712      34.364215132353344      2.6960691183561822
   148   1      10.012426412625562      37.003966424285728      2.5048756802023759
   149   1      9.7318137484709357       39.00195279351265      52.090951187585112
   150   1      10.931916472985399       41.91668252266885     0.29527224337891533
   151   1      11.176384520010023      39.759711193959447      2.3591210221285284
   152   1      9.4596360781078825        42.7542230421152      2.5630672976763154
   153   1      9.7626574240774069       44.58101488544807    0.051121405086038595
   154   1      11.275114880656629      47.067900364801723      52.031778275770868
   155   1      10.873500412949577       45.54298030860722      2.7954034619315569
   156   1      9.6664117373621838      48.133320739600308      2.8482493891987781
   157   1      9.4805629081322653       49.80401124933514      0.1380639736880854
   158   1      11.418515254743994      52.750895779539938      52.129713808563871
   159   1      11.187043694466228      50.839705509867805      2.4597643162283256
   160   1      9.4049529329490849      54.143022808650926      2.6640353749631398
   161   1      12.923135743181001      55.306719551988856      52.049330096309745
   162   1      14.723407144579516      2.5180634111324665      52.114451602771048
   163   1      14.441336083764368     0.45707297341381203      2.1672029404604523
   164   1      13.105597327968727      3.5477989472147962      2.5687054643608533
   165   1      13.199312819886808      5.3838529965826956      52.104620435467005
   166   1      14.435239147190176      8.3052788735592724     0.11701397461166392
   167   1      14.663003286162388      6.3473904495431039        2.67133504146131
   168   1       13.09345967339797      9.0473963903528212      2.8339352317455981
   169   1       13.16826363489287      10.852115629623647     0.30240637926482139
   170   1      14.279560839789511       14.01363303926412    0.097315489245482972
   171   1      14.408313558337536      11.883667025849272      2.5596734306608044
   172   1      12.760484778295039      15.025337047142337      2.7998156621612251
   173   1      12.923445856147506      16.605404749212827      51.966722725486441
   174   1      14.653447463736148      19.585184151952248     0.10139594080750242
   175   1      14.229221245751193      17.634146841150013      2.5162491990717673
   176   1      12.915464283994119      20.137604065709922      2.5435738220610959
   177   1      13.023006591683282        22.3952180032278     0.40805150413706448
   178   1       14.58731033584926      25.044599621263899     0.12770444437069406
   179   1      14.324889482469503      23.093706069478213      2.6850946149501476
   180   1      12.837765560818148      26.001362313648894      2.5460766802502093
   181   1      12.728823320934818      27.843565040197824      52.061373485035816
   182   1      14.724542754469212      30.545380573675246     0.20053290693130335
   183   1      14.704791962627121      28.549126689470327      2.8329543275790869
   184   1      12.937887315973933       31.23031068274646      2.7141565132412859
   185   1      12.737683647917226      33.427142716176476     0.15752140447620164
   186   1       14.37943138577549      36.346547351090273      52.065856427565201
   187   1      14.383399222481627      34.323197670342743      2.6758779840745555
   188   1      13.165350136520257      37.251014683646588      2.6405978396796015
   189   1      12.893033815366673      39.166366464761929      52.110239063355607
   190   1      14.609577859538355      41.709218569125817      52.123794930093759
   191   1      14.270400159411032      39.887565080640947      2.6728183897690991
   192   1      12.743690396203519      42.661317383338577      2.6227434791751905
   193   1      13.003114505872063      44.313240250023739     0.23050310839283772
   194   1      14.595533986636413      47.257939458503401      52.105353059464889
   195   1      14.614434806228346      45.093263796557444      2.5841905989119089
   196   1      12.756107379038705      47.897731386575686      2.5447633166401427
   197   1      12.927775156401784      50.233749152164322     0.16541401763574395
   198   1      14.847845288639986      52.645196004248056     0.19747408927524923
   199   1      14.589350764736874      50.330004862937528      2.7565577924410025
   200   1      12.843697029981247      53.347577872198549      2.7694241836336779
   201   1      16.040989987362991      55.283275831247686      51.995191008999534
   202   1      17.723908291082651      2.3629051634129477      52.120400602017099
   203   1      17.894209261732772       0.587663538388837      2.4836538032482678
   204   1      16.278240424987676      5.1480426347903769   0.0094313743763828565
   205   1      17.519137199183934      8.0417777523522584     0.12664911094742612
   206   1      17.682439869832727      6.0535860027702038      2.3071510444791201
   207   1      16.014341103116543      9.1496192553281404      2.6274484033749999
   208   1       16.11597832536668       11.00844909546205     0.36318542537225545
   209   1      17.389298903435343       13.89216116841512     0.03919042683717408
   210   1      17.470360060023062      12.142351696951867      2.7025753769431922
   211   1      15.709131294730067      14.673785793934451      2.4175981369982495
   212   1      15.965243019674698      16.899910360155065       52.11080295532193
   213   1      17.787198797951486      19.391363033632203     0.13188290987447335
   214   1      17.544766854772046      17.305451754590013      2.7993740225635046
   215   1      16.376722778197557      20.179372755237953      2.3994803535050075
   216   1      16.206368591941249      22.554047767471417     0.26188269447070528
   217   1      17.568757997570501       25.33645088654163    0.028625667828985728
   218   1      18.210835705374055      23.164575696376982       2.556556501919685
   219   1      16.325657052523507      25.786491235304421      2.8404734351731875
   220   1      15.905768034170407      27.780387128913944      52.121112238905951
   221   1      17.555700918386254      30.626089741367888   0.0077706740826697365
   222   1       17.61880062414302      28.732927094306628      2.4027276032408369
   223   1      15.829430851074976       31.30183820012688      2.7515041250591468
   224   1      15.996033458045302      33.321849780540646     0.12739467101824356
   225   1      17.866612972606639      36.267973619194727    0.039549993896879479
   226   1      17.618424465668809      34.640905698537637      2.6554706403090567
   227   1      16.089727382268602      37.170362798982929       2.506590165177085
   228   1      15.974182270624524      38.904197601616382     0.18241392803117262
   229   1      17.847723301136302      41.655298323575018    0.014548277724227567
   230   1      17.691026713593793       40.01440247223811      2.6537124556573728
   231   1      16.126989666946606      42.469348611464554       2.679013315001932
   232   1      16.008225150865478      44.405525717700947       52.12621651682641
   233   1      17.916891764961296      47.019035870753981    0.028981552788452505
   234   1      16.078336813729972      47.824285165936587      2.4482181938415719
   235   1      16.341834463447459       49.96655589271235     0.13364519784339576
   236   1      17.653846349548566      52.851592231599547      51.946577310525235
   237   1       17.45756127306727      50.618572457708005      2.6910205009497048
   238   1      16.273067467876142      53.838363790327001      2.9042734855173311
   239   1      19.336025985160425      55.157558770022256      52.034040716745764
   240   1      19.272998809765319      3.3994915512723161      2.5501008694995622
   241   1      20.776702473814602      0.7096078551113032      2.5640184639095502
   242   1      16.230102727749358      3.3976578532519275      2.6092506044873711
   243   1      19.212714554749006      5.0386522533972595      0.1117591041964499
   244   1      20.805828516139346      8.3287094609063441      52.100056271877499
   245   1      20.836535086519667      6.2441112111570058      2.4761793594310815
   246   1      19.317209749531525      9.3525118823746798      2.6395850052932794
   247   1      19.131183528738795      10.857664481020548      0.1074363483860729
   248   1      20.520569083314303      13.865927439619741     0.04252501160028116
   249   1      20.759407925855637      12.091761270605327       2.755834043537996
   250   1      18.862555139068753      14.801444570547764      2.7145763702015624
   251   1       19.30542808429426      16.712502560654002      52.089585676346715
   252   1      20.616248198580536      19.581464306257203    0.078993851350687136
   253   1       20.87403538795072      17.433235555925414       2.546672617319369
   254   1      19.410044193585964      20.250979241578996      3.0040843110758466
   255   1      19.180937572075411      22.207475968536794     0.18536552672600554
   256   1      20.743691042904114      24.889903253697426      51.983579715684726
   257   1      21.122140698122791      23.048170152100042      2.4208011903537585
   258   1      19.444719218616434      26.011994599701659      2.4966106359354527
   259   1      19.513755903653241      27.544248186467669      51.953110531018496
   260   1      20.867226901785269      30.368239078282286      52.010523633627436
   261   1      21.028649883556273      28.593989428739945      2.5098665513556835
   262   1      19.110122461889944       31.45446607740811      2.5868467780386326
   263   1      19.160582080992935      33.138729374717322     0.19042745398637956
   264   1      20.747956964039112      35.769413729696645     0.14958158237514199
   265   1      20.545555278843903      34.278043099208048      2.7581802064722765
   266   1      18.949962839679973      37.077539203484619      2.6857683784993642
   267   1      19.309514564495103      38.839196364589036      51.993588978488802
   268   1      20.662017950259397      41.640597619458461      52.089492831376361
   269   1       20.53156475176419      39.734134650693449      2.5879342218603858
   270   1      19.196704361813573       42.69245126510863      2.6466030383636494
   271   1      19.223321838596778      44.381999589817433      52.067469113865037
   272   1      21.075633173240064      47.001726121411188      52.128968624161629
   273   1      19.236483102228906       48.30797373843869      2.5457655728513098
   274   1      17.638748486398814       45.15846090398864      2.5791151413599742
   275   1      19.417243661524825      49.722909546947896      51.982130574920234
   276   1      20.993393587030752      52.432497003230878      51.958323639830219
   277   1      20.733707168913668      50.991885903451873      2.6012904313876537
   278   1      19.101764292172838      53.338297269333253      2.4276348442800741
   279   1      22.609270389257485      55.460545650703793    0.036611046439515203
   280   1      20.819428247102568      2.4935692140634793    0.017045246905795362
   281   1      23.713737845050879      0.7174446810656625      2.6209411809013976
   282   1      22.507464425919867      3.6972441089319408      2.6204621874519756
   283   1      22.570226612650586      5.2838974648493897    0.060903872606606187
   284   1      23.876104596261776      8.4495754099361378       52.02202436145631
   285   1      24.026564162235033      6.1292886452054338      2.5686161290313896
   286   1      22.362849476121021      9.3619644819063144      2.4773690823360202
   287   1      22.439725989202426      11.061590205882855      52.040474517806359
   288   1      23.947899595716223      13.825189856875982      51.973579681351424
   289   1      24.354752167908913      11.766264891695588      2.4891078001378588
   290   1        22.0783718907132      14.802584779042217      2.7547461729520011
   291   1      22.786473782463471      16.748216666257509     0.25865694429705111
   292   1      24.159782580906672      19.236604579129839      52.116319149275753
   293   1      24.293158395406451      17.738253786804478      2.7254294768684222
   294   1      22.667265812743409      20.227701743785225      2.6258120237240643
   295   1      22.384012793602945      22.293233488994524      52.002880303033763
   296   1      24.275675769515018      25.180420109939266      52.039862706629329
   297   1      24.338335570659797      23.018746249030244      2.7831334938495425
   298   1      22.587208483874257      25.823465352497614      2.3278724729595845
   299   1      22.593589507217501      27.567234279224746      52.024849473719897
   300   1      23.870416965933149      30.587026578032013     0.03470274970436283
   301   1      24.118048916735066      28.603455142845259      2.4179597497929963
   302   1      22.269341408260679      31.529418810053556      2.6826702046151407
   303   1      22.604781212184438      33.248236713872608    0.088536394229588616
   304   1      23.933924610003178       36.32530838830278     0.27344631625382515
   305   1      23.828139538176046      34.319413470250382      2.7207873522219508
   306   1      21.891669489421862       37.04564009737107      2.7152121416521715
   307   1      22.278316126426851      39.076162946803173     0.23124835359842102
   308   1      24.085985121270021      41.684399062963813      51.806761120638285
   309   1      24.021101686103673      39.369029657840088      2.6793900972744735
   310   1      22.163604553426321      42.360514722170329       2.473553778652763
   311   1      22.478735161046878      44.293206577677481     0.17562073079674462
   312   1       24.19637241856195      46.893147572521592    0.084163184299788599
   313   1      20.661626474674531      45.278203357352012      2.4425672774915892
   314   1      22.382631916352658      47.873773650960658      2.3897518836060292
   315   1      22.631255878731142      50.041469407567021    0.025955229535138367
   316   1      24.289855089040234      52.392834432020571    0.046960229054643497
   317   1      24.565660639122193      50.428137538269915      2.4214694120366063
   318   1      22.235170649256354      53.302116828069018      2.1880696850308952
   319   1      23.947213742100232      2.4163354083117321      52.085523544396466
   320   1      27.168090030570387      2.7784334633649581     0.16024244805180943
   321   1      26.843140337818113     0.98776577223447026      2.6518793990600762
   322   1       25.44182313697619      3.4618609942836827      2.5411763747939125
   323   1      25.607988506770326      5.6673858110824993    0.053388223320652357
   324   1      27.545436099127944       8.293957524412269      51.985320841963528
   325   1      27.271083100849545      6.3557339349848476      2.8286563946205905
   326   1       25.38756705191232      8.8622738617897845      2.6229650029225819
   327   1      25.590524799585289      11.014830451947201      52.056179719242671
   328   1      26.998597868975867      14.029306611991521      51.926573591871353
   329   1       27.30630914463838      12.032588702423761      2.3221333664121833
   330   1      25.219002802689548      14.852931822329374      2.5341859111594225
   331   1      25.905334673740413      16.600533109439237     0.38028663626645526
   332   1      27.369397496417523      19.418295269909802  0.00078185008482359916
   333   1      27.173494627046985      17.702637522060982       2.839068057324825
   334   1      25.743865522625448      20.491845218539865      2.4778728371968812
   335   1      25.869835730976199      22.321411676447859    0.075059549316157381
   336   1      27.405974031624602      24.999561075116453       51.89920736283247
   337   1      27.318438694460877      23.180191900073794      2.6671421137352791
   338   1      25.601447957372656      25.851456685918393      2.4181841973220184
   339   1      25.762939122596102      28.109594936857455      51.911425364519765
   340   1       27.36706626667311      30.595866031575682      52.116667517767105
   341   1      27.213301099492547      28.608048444717902      2.5698255685699603
   342   1      25.704012065630174      31.534663532810232      2.4412450780144033
   343   1      25.606593210959034      33.381522791939112     0.15646352473858866
   344   1      26.903116999202275      35.971263614661311    0.087378390826317584
   345   1      27.241029425360956      34.264178644527995      2.6650577799949704
   346   1      25.517818422992757      36.939355372149805      2.5016989782127608
   347   1      25.751698471584344      38.912170008791129      52.042491377562058
   348   1      27.855908798824409      41.695125961404997      51.790553414076605
   349   1      27.379464177084056      39.433469280467463      2.2887940467408256
   350   1      25.855041103710722      42.103744726228712      2.5778804947282041
   351   1      25.840141278606474      44.074830280693142    0.069908354946725731
   352   1      29.114964438369565        49.9834634280516    0.022492230914294125
   353   1      28.868260812870371      42.821600036916266      2.5573258969295942
   354   1       27.40672665571309      46.714279088589649    0.090658215844381995
   355   1      26.181787339278991      49.916542101633603      52.072564264465939
   356   1      25.708138519155824      53.691885593599373      49.563352550241099
   357   1      27.346259972392133      50.989433883788202      2.5657690900591312
   358   1      25.362475949769141      53.514421151937604      2.6403430426635333
   359   1      28.607030530312507      55.495449024881019     0.15614462891153069