dump/Mg_700_20/steps_91 (written by ASE) 

3980 	 atoms 
1  atom types
0.0      32.100000000000001  xlo xhi
0.0      55.598830921999998  ylo yhi
0.0      52.130399999999995  zlo zhi


Atoms 

     1   1      0.1722047407325932     0.30567008492503966    0.078836883457222229
     2   1      1.6385577118326877      3.0301950069404509     0.16440491098995039
     3   1       1.579436456927453      1.2068949218533762      2.5741932260189571
     4   1    0.095728747406645026      3.8935393777090144      2.5810218137904362
     5   1     0.43577010325339033      5.7483960126677953     0.09883029959417311
     6   1      2.0665586141699586      8.4507876597527467    0.044461895802774862
     7   1      2.0339872468516442      6.6481804268722735      2.6124961147302743
     8   1     0.40786237868833231      9.3145770068743161      2.8513271499742094
     9   1     0.39720686030172003      11.005110225589425     0.29514549079562336
    10   1      1.4216813880275043      13.820081509852177    0.076376820448352006
    11   1      1.7901219679056677      12.084541571684209      2.5976786497751991
    12   1      31.908017554545872      14.563016737753294      2.7800544951324513
    13   1      32.007990222665917      16.337173365771701      52.059754740312343
    14   1      30.705004822482273      19.053441820573862      51.912232179666773
    15   1      1.3231564349661769      17.393208730373942       2.329300115599084
    16   1      31.973318999171685      20.271401279105586      2.2998354627606639
    17   1      31.869090773242394      22.149634314002366     0.10735047327903104
    18   1      1.5696269666966602      24.888792841550355     0.10401923155879084
    19   1      1.4531740460019142      23.213699287743367      2.5416153374978299
    20   1      31.811701508255926      25.843137319539341      2.7832495459457465
    21   1      31.838465263040728      27.955850424635631      52.071714676179496
    22   1      1.4650093492829177      30.318399986876138      52.080533465947561
    23   1      1.6982424299573526      28.859248076832191      2.6229724579887757
    24   1      31.932790209937586      31.468178484414093      2.9761790031051958
    25   1    0.098549638028716524      33.276424807395628     0.30014327186231404
    26   1      1.5322264495492228      35.825560437068233      52.087937048563823
    27   1      1.5284775099603305      34.389382690115134      2.8018441103271901
    28   1      31.860500427065684      36.876159504181999      2.7413449835676347
    29   1      32.053008810632107      39.037323734776436    0.030464365111786875
    30   1      1.6537426101647652      42.020928248787683     0.30503961749476349
    31   1      1.1647536679620787      40.224575002986953      2.6606165145832521
    32   1      31.557045386230236      43.058092084599821      2.8397628960485148
    33   1      31.771308000607032      44.523905613648147     0.14182413019058232
    34   1      1.7065318426723757      47.487931829125387     0.50620036293575676
    35   1      1.6568029956132282      45.417977797548701      2.7444877580103784
    36   1    0.068819782966741794      48.526736473677936      2.9576568055504069
    37   1    0.079886561609217574      50.212013067604985     0.26971256634072782
    38   1      1.3640134056208413      53.127810602854645      52.061782021335084
    39   1       1.604932371141141      51.074492846064075       2.555621524327671
    40   1      32.013083887596352      53.836725590102432      2.4880464982795529
    41   1      3.3207711357019392     0.13736850500388403      52.072227151467366
    42   1      4.7434563745775309      2.7717684704144574    0.042740811803210023
    43   1       4.962039421246776     0.93668927937413959      2.6581708919514018
    44   1      3.5743812652711631      3.8391605929437844      2.7226791648778428
    45   1      3.3918429188565939      5.7665311309985547      51.949648310567191
    46   1      5.1800066669335738      8.3487657896314449      52.092089882293322
    47   1      5.0074400883648149      6.3436711185047496      2.4348950982716442
    48   1      3.5552231491459971      9.3246949592514206      2.2991400373272599
    49   1      3.5594262933588348      11.253458404858886     0.10798144687521445
    50   1      5.0096682012998883      13.830049472132611    0.022566283983903503
    51   1      5.2562938341962484      11.890927557166741       2.503893203724719
    52   1      2.9918720874406057      15.089100362003432      2.3576269055992234
    53   1      3.1119074257100956      16.680321026995511      51.981904933000727
    54   1      1.7703371255823004      19.491940340142609      51.967976300667182
    55   1      4.4222712034090454      17.860083262872053      2.4218689663113793
    56   1      2.7852260335143479      20.349227712792867      2.5846871618094092
    57   1      3.0801077799426375      22.225819382284126     0.15452834270959512
    58   1      4.9060731896287528      25.406293200300698     0.29230953451896852
    59   1      4.9225625274310154      22.957756468693407      2.4707337118159436
    60   1      2.8877557244253249      26.142291254021355      2.4556864662041535
    61   1      3.0389881328064043      27.781931572593916      51.958833450489266
    62   1      4.6829778079666537      30.117866290652199     0.04562973467901419
    63   1       4.700312003298011      28.655350975899776      2.7542209616089828
    64   1      3.4918460205330621      31.290828451724405      2.7074435040591376
    65   1      3.1032118432322733      33.062833751672137     0.33370802632948637
    66   1      4.6284553178244767       36.20234566916524     0.13902312209401158
    67   1      4.4602914762345742      34.534810179117919      2.4196274957593533
    68   1      3.2560302515625725       39.24957319953765      5.3455220406092145
    69   1      2.9401389103721058      38.817667436055267     0.21931137079818125
    70   1      4.6361271553063874      41.724435329837789     0.14448598725704342
    71   1      3.2681129683453034      37.170412841472192      3.0408816168306276
    72   1       3.412093499380525      42.601454381075612       2.659215162787822
    73   1      3.2328599019301922      44.585618346521699       0.155091932597205
    74   1      4.8421664064134813      47.367965197489951     0.26284230922423618
    75   1      5.0293492856782871      45.703482890225409      2.6602271363975003
    76   1      3.4395047058053247      48.314305383754792      3.0203758110946985
    77   1      3.3437066324268288      50.009069167777881     0.11782717861951369
    78   1      4.8445050881254916      52.780115236966964    0.050438345248639202
    79   1      4.8693603030631261      51.176651620904373      2.7589006009179027
    80   1      3.4438949518231725      54.008288437017875      2.5865881789098881
    81   1      6.4022159148083899     0.14336860606357399    0.061074600575454885
    82   1      8.2442700241455444      2.5548623077576704     0.10520780837158064
    83   1      8.4652540063879709     0.73483392274847115      2.8902398912891525
    84   1      6.6902014697847196      3.5922994366824357      2.6718277743024892
    85   1      6.4682179779506646      5.4875830585364307       51.99093769114625
    86   1      8.0658729778934006      7.9524135084666812       51.97165218165069
    87   1      8.3678813935586902        6.32043398990246      2.4815122567500927
    88   1      6.7639141307563042      9.2645103263867377      2.4446869422249997
    89   1      6.6112152450631037      10.862586523142376      51.828490076999394
    90   1      8.0024452547158713      14.082394693148197     0.35760228705320324
    91   1      8.2682604946101392      12.122795899758691      2.6753310768112315
    92   1      6.1016425063399709      14.852127737569985      2.5208808140064849
    93   1      6.3726319924047754      16.877499607010524      51.937010727014808
    94   1      8.0571706240476519      19.609416667332408     0.26458163387034822
    95   1      7.9198576308932314      17.767883616139493      2.5576346464425699
    96   1       5.954807413113147       20.17558376996109       2.606140448584684
    97   1      6.1699912678618354      22.387692503066976       51.99640193694426
    98   1      7.8231756061207447      24.978045206961347     0.10199684304325125
    99   1      7.8618646856061938       23.20792113534991      2.4628682066637002
   100   1      6.2388360924540054      25.814778209638842      2.9549440541707415
   101   1      6.5277294419091403      27.846339284301262     0.17074121541870216
   102   1      8.3321797467261423      30.318409818030986    0.025337577361457104
   103   1      7.7165738301228668      29.254986556169737      2.8517860036527951
   104   1      6.3101208442478036      32.163154372282641      2.7817546689050112
   105   1      6.1972087994484335       33.74873988707018    0.087825043684501933
   106   1      8.1481737340858089      36.272698820199935     0.13682640789146591
   107   1      8.2371951911343952      34.610655072824407      2.6517875502018886
   108   1      5.1225840293814109      39.846932059261164       2.636106520966305
   109   1      6.5265512479478049      39.002917270341094      52.017971410629727
   110   1      7.9020347998516387      41.645025052544362     0.13982819925046902
   111   1      8.2567618866500236      39.740729797409443      2.6442657256031552
   112   1      6.5633388054072137      42.641250053891739      2.5467825545238694
   113   1      6.4230601410275732      44.529231495567082     0.36757652174892114
   114   1      8.1902714508680017      47.507654094063192      52.091204620400489
   115   1      8.2041982746678581      45.619693731511063      2.7021948081092133
   116   1      6.4301626410010906      48.138514972799982      2.8726786731093652
   117   1      6.6390293134894263      49.923094205651317     0.12840140331418698
   118   1      8.0067010883501197      53.117500558017213      51.976684986063766
   119   1      7.7672954810100778      51.091532252768303      2.5196378664845387
   120   1      6.5728824971542474      54.042185766270137      2.3885174362126915
   121   1      9.7306477530228737      55.425485598102213      51.973053186699062
   122   1      11.075519379264145      2.8751433801724282      51.815071015214066
   123   1      11.158973964184467     0.88523437137099348      2.4512469539697377
   124   1      9.6922633900203525      3.5379793445095573      2.6669599361527947
   125   1       9.498594489499391       5.439495845680316      51.977345923815207
   126   1      11.278911886439939      8.0526246104245498   0.0029235296160471996
   127   1        11.3197252109132      6.5330916217056094      2.4129898490803448
   128   1      9.7340544262735964      9.2009713347475817      2.3342290820295952
   129   1      9.5569620829854927      11.336193286745827      52.088376951614094
   130   1      11.208660947180919      14.029563483010152      51.964839846272227
   131   1      11.204283149671275      11.986834082069015      2.6040605555714045
   132   1      9.4333226283436797      14.964164240537498      2.6927508890427005
   133   1      9.5559425923003563      16.684124948662006      51.838056180104466
   134   1      10.832686070866709      19.310783577961402      51.902811998501136
   135   1      11.078918605036021      17.372384088505637      2.1793062469862932
   136   1      9.6691069559046703      20.338479392909974       2.489476680506769
   137   1      9.5575049900946922      22.299689868880208      52.117241145640513
   138   1      11.178106906012172      25.032343847080625      51.841203602525368
   139   1      11.285916403243377       23.24410102788805      2.3894765591641258
   140   1      9.5256848983214635      26.279991887657381       2.510707710326785
   141   1      9.4731913510084009      27.693738162846437      51.967754180626869
   142   1      11.029283130911637      30.764080021976884     0.26114325451287235
   143   1       10.78879387868594      28.837369771840997      2.3996180806304683
   144   1      9.2931432541077683      31.808233167413999      2.5389713892627768
   145   1      9.3418368571646475      33.333277240274242       52.04548639252377
   146   1      11.410546102633846      36.021275621141413      51.975952895848643
   147   1      11.434521191179046       34.90165856460878      2.4482337241508465
   148   1      10.015916078807807      37.029424403451657      2.2808146800246569
   149   1       9.882047922554019      39.116582633116877    0.038400714337260812
   150   1      11.465747303100843      41.786250361506241    0.044641563465800935
   151   1      11.173740859547429      39.969659314852692      2.5247032077403175
   152   1      9.7594528319951568      42.654584823194789      2.8161188543373772
   153   1      9.6803185629531114      44.226053661538096     0.15112443584437088
   154   1      11.525941303933012      47.360168027582858    0.037847897578343385
   155   1       11.16137850704278      45.590601713138987      2.4956905203878805
   156   1      9.4999851836440641      48.675511168901849      2.6761645711358972
   157   1      9.6074945508666953      50.047278752616457    0.049227113790966073
   158   1      11.312956692649596      52.735178100605069      51.771914590905411
   159   1      11.111983539672368      51.209061903040798      2.4019190715514336
   160   1      9.4247543285083175      53.676043095705261      2.3546085781022263
   161   1      12.811559028184325     0.34389535964971024      51.963272475917648
   162   1      14.525392597168901       2.941963985860196     0.26535533799661321
   163   1      14.256458369056883      1.0261638751402626      2.7405599717683709
   164   1      12.672810898503789      3.6261561128546855       2.644542365428828
   165   1      12.775212877944806      5.2829410621171062      51.927032705375389
   166   1      14.437175458234179      8.6821937636538014      51.805373778348546
   167   1      14.459203500949807      6.8827076016401945      2.6501702555339279
   168   1      12.868576113950544      9.4035142099475006      2.6287643590108134
   169   1       12.60207260678378      11.271135858459278      51.847983742222425
   170   1       14.25957913560536      14.271687804858578      51.849728111062575
   171   1      14.679596230709851      11.926877293604091       2.176442742638935
   172   1      13.049907697027122      14.596401482531794      2.5628956665086484
   173   1      12.653743069520072      16.579510979192403      51.829957715977869
   174   1      14.193140581385034      19.471486774227827      51.911917350350166
   175   1      14.391556386412651      17.587418067597063      2.5879055864947453
   176   1      12.796178607418762       20.50911380053158      2.3895350152153294
   177   1      12.754120749214959      21.862404348648745       51.87277191991106
   178   1       13.93389944160983      24.893267191449976      52.012842988111409
   179   1      14.319151207525529      23.352606651654529      2.5602672880239963
   180   1      12.771841924835718      26.132517881982015      2.5515331908226111
   181   1      12.554716444177146      27.940117631619277      51.956960587430451
   182   1      14.730353258816837      30.526267904616986      51.664589181158043
   183   1      13.945197515794096      29.173257403869719      2.4485003353338972
   184   1      12.255130055116625      31.641834031533353      2.6398465494977095
   185   1      12.853715621914965      33.390618387390788    0.013558583585726569
   186   1      14.579327956602498      36.692209115595119     0.09867246550720736
   187   1      14.511175400026042      34.588314607407177      2.3311872435737628
   188   1      13.024833865939149       37.66537616690767      2.3879859833041057
   189   1      12.936867692109489      39.184902085187446      52.125803765545001
   190   1      14.190600092687301      41.670455240344488    0.075619114691734518
   191   1       14.72885789216058      40.062036518986055      2.9033246106564565
   192   1      12.996228284068872      42.682919185802845      2.5880385145686162
   193   1      13.204062513374378      44.644274606556714    0.064384549510513145
   194   1      14.587166594697065      47.454552174904585      0.1117225919608882
   195   1      14.525245742433583      45.576813703988662      2.5579030932292555
   196   1       12.70501322148445      48.443989551813246      2.6618646847977412
   197   1      12.727186109049981      50.044106862629448       52.09205720470122
   198   1      14.367532266223554      52.942148085478003       51.97743826707724
   199   1      14.434267930431266      51.039023100079319       2.278826666889076
   200   1      13.056868193481565      54.061792675517111      2.4293701726896777
   201   1      15.687717271775885       55.56241273125876      51.943681979482875
   202   1      17.657228987901156      2.7389823232336838      52.074521574563754
   203   1      17.814768866632647      1.1116416517554659      2.7259560380402612
   204   1      15.954011008668276      5.7772721228610679     0.05972084765826266
   205   1      17.803080987487384      8.3491183929928745      52.025057724592038
   206   1      17.707295473703208      6.5780286863321136      2.4293374285128966
   207   1      16.387280505096093      9.5160316935802332      2.3129941676705763
   208   1      16.048774923404256      11.282959732129115      51.815809056935095
   209   1       17.48733243728676      13.780427445451124         51.903224294645
   210   1      17.754510553448206       11.88659978352046      2.4059134246528888
   211   1      16.146230857588048      14.983610938498257      2.4539752385982441
   212   1      15.970636371270921      16.666020554877207     0.23524261127664797
   213   1      17.244678572742966      19.594633497456996      51.712457041977181
   214   1      17.821162928758707      17.758508460238634      2.2765435958643665
   215   1      15.720588987238855      20.450393113143846      2.2315681652001795
   216   1      15.607148732409502      22.428190509372744      52.072548108331809
   217   1      17.551078018269429      24.717498043915427    0.025451462933800396
   218   1      17.475911649202246      22.845749778621265      2.4231783831537692
   219   1       16.03430089133774      25.978889670532666      2.4699116129956038
   220   1      16.412110257890369      27.756151010184894      52.070911852764851
   221   1      17.546555648559938      31.211329631270896     0.23087479377550529
   222   1      17.678246155365947      28.846066353443291      2.5034167418503297
   223   1      15.700916970408755      31.797488844530282      2.4616394829511394
   224   1      15.954893177045813      33.496219059446751    0.033734211181268181
   225   1      17.887507230358139      36.187118330881226     0.35550449686009683
   226   1      17.752310610782565      34.095553198944302      2.8538233785160316
   227   1      16.365006582017067       36.94110471295857       2.664764983798082
   228   1      16.083812546579605      39.080692166138491     0.23990229504123584
   229   1      17.742350512524556      41.911319953564153    0.014672094975068177
   230   1      17.622292107587203      40.285271460090847      2.9265406513215493
   231   1      15.964096409440094      42.858870946379476      2.4773192891206692
   232   1      16.226531004507152      44.775255126204925      52.016453371596675
   233   1      17.777360850010428       47.36667323801602    0.040514710779343571
   234   1      15.908554646128476      48.187248453070993      2.5852019899071124
   235   1      15.908907318497031      50.283564841235936      52.005686759505522
   236   1      17.566179491397509      53.059578570311004      52.088375298541983
   237   1      17.637793041470193      50.996502125295613      2.4202945591887883
   238   1      16.134497589639569      53.784089866995778      2.7614265348622191
   239   1      19.014830315976003     0.12864876843369757      52.081358864899649
   240   1      19.219424082948994      3.6310916057754836      2.7648663356470564
   241   1      20.835150348179461      1.1447863937162956      2.4414585717856299
   242   1      16.096518901697966      4.0714975307883723       2.664794939253166
   243   1      19.271485261815343       5.325814211651414     0.19719180862775845
   244   1      20.856601880751093      8.1477077739056636     0.18710009846457337
   245   1       20.65020171394319      6.1470687510123678      2.6057557633180317
   246   1      19.175169220596171       9.049315709977094      2.8425254661276584
   247   1      19.415929355251809      10.950731145242036      52.050823319869444
   248   1      20.854816299133496      13.558381324648737    0.092690017039429487
   249   1      20.732350867577296      11.837976465750845      2.4092514141126649
   250   1      19.129871783534036      14.505748346506303      2.3778103938259636
   251   1       19.08703284700567       16.60300457135207      51.953794141612235
   252   1      20.955097425644222      19.520666231904599      51.776372932093302
   253   1      20.891698561189163      17.487312693940574      2.4489387573536132
   254   1      19.345572899551321      20.316242631097754       2.411199765589882
   255   1      19.026241675022469      21.961186925818261      51.979427046790072
   256   1      20.733817346560841      24.507477318537124      52.049160941472877
   257   1      20.591195149807596      23.013176021474212      2.5128691187595824
   258   1      19.176139913535025      25.990693380408729      2.6062553825501551
   259   1      19.470790838869537      27.482214083101908    0.035429102829939468
   260   1      20.448054777595058      30.422638206991994     0.10149565948895439
   261   1      20.569120014171219      28.933482523160606      2.6547044182858603
   262   1       18.90622739088602      31.542051145106218      2.6059293362988547
   263   1      19.425533556041323      33.255674206837611     0.26739435932979599
   264   1      21.141100212520588      35.875499087064739     0.04285666766573748
   265   1      20.740983116417659      34.258656956968636        2.97563563756015
   266   1      19.437969134312745      37.223625105242441      2.7975862163224585
   267   1      19.121928740914065      39.165151924349544     0.23744050301756431
   268   1      20.952322840654553      41.776586836551296     0.23551284947274542
   269   1       20.67040357050336      40.010904146863908      2.7265996268998149
   270   1      19.457154264721755      42.984868155988437      2.8041571994208803
   271   1      19.545664667716995      44.533372982003492    0.010774101712044275
   272   1      20.971171944430893      47.074702029579285     0.21695167341190397
   273   1      19.607521860897862      48.482224918459657      2.8845188384948517
   274   1      17.588421177874249      45.595329398025399      2.6222210570102127
   275   1      19.826244632820401      50.152247107277589     0.14820602327435914
   276   1      21.041007215642651      52.936129824240822    0.055171862225970258
   277   1      20.774686057502088      50.972163796029747      2.7012331781186156
   278   1      19.329499672294286      54.064805630954773      2.5529282138493512
   279   1      22.816281083291805      55.471384683557261      52.039289311248133
   280   1      20.863308331682621      2.6016482813531359      52.038893926389314
   281   1      23.929113128803767      0.9359773310798527      2.7369931217946846
   282   1      22.636166735655131        3.76781477196762      2.7401664036549178
   283   1      22.395665805940762       5.403424220113898     0.01882880314772872
   284   1      23.945553354483053      8.3555497992805208      0.1249725297006815
   285   1      24.110895760081441      6.6325514123440952      2.6434275463661456
   286   1      22.343385937174375      9.1239309097096424      2.6941307312541816
   287   1      22.479885383741383       11.05431025948954      0.1067154744951903
   288   1      24.096116329527351      14.084711230418057      52.111853408983031
   289   1      23.763703892303379      12.107676200880277      2.8171382873396231
   290   1      22.558823640614843      14.696295071703828      2.3511189585468002
   291   1       22.11406613510346      16.570249800220523      52.111032509878179
   292   1      24.099780084426779       19.42864100227715      51.919379436957414
   293   1       23.95951118169771       17.25777473538745      2.3406592157233232
   294   1      22.621839076814474      19.912819510023102       2.342243163775755
   295   1      22.392275054293137      22.048066432597981    0.018688958937609558
   296   1      23.859133395894379      24.805045703388782      51.976013437556048
   297   1      23.777259500057092      23.073765590064845       2.535117760681961
   298   1      22.136446428272006      25.755016702594162      2.5667059309080122
   299   1      22.283782663544827      27.781777092540878      52.066006124521202
   300   1      23.568842136257302      30.444590703173589     0.13272496470141074
   301   1      23.599631246933225       28.65651784227261      2.5312639805476618
   302   1      22.203527217942955      31.671856527175795      2.6767308703177082
   303   1      22.307852088529135      33.093799091388824     0.19718812712610029
   304   1      24.273639033128411      35.847047459918137    0.004818784430266166
   305   1      24.058408403076282      34.060820021067336      2.6600009128265785
   306   1      22.558862772608116      37.058213613831434      2.5185412879024596
   307   1      22.106479871692716      38.748645018061929    0.076800729840592538
   308   1      24.290584636468878      41.344679943001168       0.049028356646728
   309   1      24.010667712983306      39.633049941053379      2.6127601845594945
   310   1      22.435116841673516      42.761947856085946      2.9146755532001967
   311   1      22.733905200318166      44.456919452909297     0.55006549767283464
   312   1      24.261370360227815       46.99604900898273      51.917893320353727
   313   1      20.907832959987594      45.563785123437988      2.7706526416120241
   314   1       22.67120482264794      48.114992036569063      2.4432899655912865
   315   1      22.671189297509901       50.04946675575583     0.18560820481460044
   316   1      24.320297470211447      52.578050425534514      52.076395512065794
   317   1      24.191790787890447      50.811453226681579      2.5777254784266859
   318   1      22.503091114702734      53.595026549232799      2.4395869858844108
   319   1      24.545515641092873        2.76692897024938      52.103067709617278
   320   1      27.411148831638389      3.0050228758249822      51.875611696563027
   321   1      27.300565525392908     0.93815666373139261      3.0116043479811081
   322   1      25.751990166213773      3.6209837757613776       2.827609551476018
   323   1      25.906918420290555      5.6184550133299167     0.25175914793447857
   324   1      27.067617576755481      8.3973799950159282    0.055800946867808052
   325   1      27.727592473756282      6.4369872383703326      2.6386999468141168
   326   1      25.661827096963776      9.3920590224169072      2.7333226724824207
   327   1      25.265558360320465      11.123387957192644     0.23614373392190888
   328   1       27.19983648279193      13.609856017023729       51.73799977558182
   329   1      27.275515858189284      11.964831538897718      2.5320632360872635
   330   1      25.411905556683898      14.406073300664977      2.4312486222357839
   331   1      25.467216017293715      16.317182087793594      52.036602318512195
   332   1      27.136133035857991      19.105549987331884      52.073366675710474
   333   1      27.238886797945646      17.009446596187406      2.3268776048684066
   334   1      25.514533813229978      20.437250130959566      2.3550218136471819
   335   1      25.612523267269953      22.416088474842766      52.005474755168713
   336   1      27.324390429793539      24.970914034702822      52.059780884068566
   337   1      27.160661975836121      23.278103539477812        2.60617153529186
   338   1      25.245607164659422      26.070006635051538      2.7504069168236422
   339   1      25.473519761247974      27.601295125203983    0.021310337336571797
   340   1      26.548807709367306      30.580750170670054     0.11758888713085884
   341   1      26.869487812948758      28.614420791405379      2.7558633270241604
   342   1      25.472724000408775      31.267966394197462      3.0065046535758175
   343   1      25.489980391918035      33.319491703867797    0.024381409857151336
   344   1        27.5211213468206      36.172116652926547      52.069391378738629
   345   1      27.337165921354913      33.927258610053407      2.4169221640466536
   346   1      25.407477607549257      36.715419600857011      3.0980919263984243
   347   1      25.615723494798271      38.503917156654438    0.036704306015801817
   348   1      27.453250108636389      41.711542109239609     0.24893720428086996
   349   1      27.034542952499422      39.471038813346077      2.7799542057192341
   350   1      25.435833286694216      42.378849027356686      2.5079053232368849
   351   1       25.36381083442075      44.306681065788489     0.27776787967392114
   352   1      28.839388067934106      49.781143569483277       52.02204685453777
   353   1      30.432709719952431      41.772775172557729      5.2046203346974238
   354   1      26.159180670418248      47.851018669335112      2.3303709360975118
   355   1       25.98301034621435      49.981865200820884     0.11840216749032814
   356   1      25.760740427751838       53.96689440403086      49.756967966685195
   357   1      27.484172256515951      50.851345711170822      2.6793485072858396
   358   1      25.585589986023411      53.663461015611105      3.0905523725483786
   359   1       28.96292935100097    0.080925374418100729      0.0738617104231757