dump/Mg_700_20/steps_41 (written by ASE) 

3980 	 atoms 
1  atom types
0.0      32.100000000000001  xlo xhi
0.0      55.598830921999998  ylo yhi
0.0      52.130399999999995  zlo zhi


Atoms 

     1   1     0.16314403213390635      55.583456296638253     0.11617432802253491
     2   1      1.4285666571502817      2.8200939103134708    0.031158333031128686
     3   1      1.7648656400732103     0.41859571868510476      2.4462540747801085
     4   1      32.091809565442325       3.799344210452174      2.5676677115868216
     5   1     0.19620301540341306      5.6176332288104769      51.960474202934257
     6   1      1.4443088472464571      8.5034816125123669      52.016461624837476
     7   1      1.7502493837495889      6.3475198642635347      2.4186108575060987
     8   1     0.29983229906755532      9.1322096177181304       2.305614325891816
     9   1     0.01125142781226416      11.139514752132076      51.798887309756843
    10   1      1.6580452119789189      13.768638047154429      51.870231386349509
    11   1      1.8154119154942121      11.968095194201844      2.3630137334750883
    12   1     0.29939166377954612      15.094384386504462      2.8691729085972368
    13   1     0.28832795841681624      16.407693027969014      51.983615232051115
    14   1      31.003495582305767      19.268707758802698     0.37204422629859923
    15   1      1.5962154078187965      17.902010572448994      2.6298373238204342
    16   1     0.48216568079262911      20.665485455308861      2.9242566750000223
    17   1      0.1264489000817336      22.220941417281232     0.27941240322097571
    18   1      1.7613089114706917      24.717797031519627    0.092431833515251638
    19   1      1.4496932588390454      23.377955106915046      2.7041399440293756
    20   1   0.0022425562422785533      25.929020180679696      2.5840229780029449
    21   1      0.2487813662753427      27.504348440535718     0.18879815155506238
    22   1       1.625758052566074      30.071929185973286    0.062125375831367138
    23   1      1.6647233592610071      28.696989240438814       2.612082933519845
    24   1    0.064352500383872566      31.444603692556559        2.82078528740018
    25   1      31.903815877775823      33.171732250846304     0.29984300501243144
    26   1      1.4998441261711992      35.615781278470436      52.062440131009623
    27   1      1.3968972862384292      34.449414189458572      2.6212940248522729
    28   1      31.880710522757678      37.286624335012007      2.3944303780318128
    29   1    0.063408328840699635       39.00447062750159      52.043173324072207
    30   1      1.6496978037715306      41.709149407212401      0.2014082178458704
    31   1      1.5266303149273905      39.557488565435278      3.0248470088242883
    32   1     0.53628026062668033      42.803181009166636      2.8812258078588826
    33   1     0.28057436176753214      44.437997785300126      52.007707230171889
    34   1      1.7999712422936984      47.236832135225718       52.07009786166207
    35   1      1.8860183731384301      45.367636585756216      2.6770525055280192
    36   1     0.30707600648779926      48.084636987849045      2.3961221701176769
    37   1    0.066616437164126144      50.436124379079764    0.068113239663513833
    38   1      1.5235546701155747      53.019875662373131     0.12116096601995924
    39   1      1.3690275744920681      51.083595655286594      2.8522758177024987
    40   1      32.052108553579473      53.820655351457937       2.560790433351344
    41   1      3.4577928267653064    0.010916197506936979    0.053655122094998974
    42   1      4.7985129830068409      2.6600698146200186     0.13256927481895517
    43   1      4.7108829384113111     0.92152233054137078      2.7246042161854858
    44   1      3.1742932683133533      3.5391363417771271      2.5168837756370244
    45   1      3.3511900336067058      5.4997871675088863       51.83867217154895
    46   1      4.8376369322893273      8.2175064966006133    0.083558938766332219
    47   1      5.0041849835035492      6.5219260144566364      2.5858518856782715
    48   1      3.2475500971541758      9.4584874511073007       2.444766466427724
    49   1      3.4665662120799263      10.865661476101083      51.965784216144591
    50   1      4.8238108382314335      14.093026355642282       51.91318291437377
    51   1      4.8163778768582519      12.388331407651512      2.4313016342559388
    52   1      3.4702128605425493      14.964524580973473      2.5930770395569693
    53   1      3.1172091147805547      16.981374900120603    0.087182153558127848
    54   1      1.6514499812328656      19.496018420436389      51.936431571169784
    55   1      4.9910412313748216       17.71938803992828      2.7025348034391912
    56   1      3.6228477341517835      20.542725313691598      2.8510869598946518
    57   1       3.474414257188724       22.03327544273116     0.22062726043011988
    58   1      4.7350292918414549      24.993308026980806      52.122297870302276
    59   1      4.9811041997263512      23.141881344300351      2.6710588034372904
    60   1       3.226224399755083      25.764843940867305      2.5688823411212125
    61   1      3.3543221032974135      27.537960095257642      52.070473897063103
    62   1      4.8974972846006555      30.679344549424329     0.31208893680706873
    63   1      4.7877588987698001      28.468953090480355       2.596548765055855
    64   1      3.1651322414037866      31.240667512531864      2.4147841886564745
    65   1      3.0964954822093613      33.043230067028418      51.866038481028774
    66   1      4.5971896008225652      35.956270937516067      51.887692974692612
    67   1      4.6886321378169429      34.078588140402601      2.4106907985916481
    68   1      3.1293831959373288      36.849482977130862      2.7261200304071345
    69   1      3.0970758703725814      38.897570642832221     0.37691715473007475
    70   1      4.9064537437821762      41.270264174836015    0.040347816736843831
    71   1      4.6374756856783987      39.437358692030109      2.7613693907336967
    72   1      3.4913355870220588      42.538201797438823      2.5691466627157955
    73   1      3.3857271221480296      44.371168589399403     0.11696231511098346
    74   1      4.7281991616988659      47.070717862972863    0.055812943744106447
    75   1      5.0012205158404219       45.68110758131472      2.7018912426595905
    76   1      3.1197812089259331      48.095829426370152      2.7989208042128277
    77   1      2.9266962369242533      49.962727001727096      0.2780243677630761
    78   1      4.9664161670509586      52.387279320935271     0.15361670219173346
    79   1      4.9274976700290383      50.461982463643508      2.7919129102972824
    80   1       3.898331558076404       53.38656627156076      2.6568743393759724
    81   1      6.5919180080676547      55.473713444735424      52.057737851279512
    82   1      8.1347707774392024      2.7925486820998322      51.773746509491403
    83   1      7.8487199857163912     0.85732869445148363      2.3618681708459879
    84   1      6.3918691696252274      3.5196388857494108      2.3380861480986272
    85   1      6.5020036050710299      5.2924731221569212      52.063954319865729
    86   1      7.8158300532034124      8.2879129006513068      51.759924234868315
    87   1      8.0785987027629496      6.2274399648232253      2.5253706364165103
    88   1       6.413776490995275      9.3068193091154772      2.6812536962025106
    89   1      6.4243504692556295      11.161223545608657    0.064533075651791769
    90   1      7.7912337356400032      13.742242210816258     0.17745976675761893
    91   1      8.0760409197563572      12.068765853859809      2.6821045044820955
    92   1      6.7179735800718179       15.00189435306293      3.0555384480425749
    93   1      6.3242381716940894      16.686476037850518     0.40242976579860446
    94   1      8.1170743442740001      19.387790258993345     0.17143018419460232
    95   1      8.0429279702208252      17.475318532536111      2.6698924290328696
    96   1      6.6757548414422097      20.355628611093284      2.5224957565194934
    97   1      6.6035082225579238      22.179096362909107      51.956554563850936
    98   1      7.9877169082169805      24.936508697630003     0.15059684519099231
    99   1      8.2861034286224857      23.127288176439343      2.6704653934627021
   100   1      6.5049160630621321      25.779524655557132      2.8604367900722365
   101   1      6.6169106145337144      27.515072950616403     0.15609512444907622
   102   1      8.0953356260241858      30.487705481110499      51.987633502648386
   103   1      7.9000752076164993      28.798238355631813      2.4874462987418342
   104   1        6.54466859180918      31.590853473182051      2.7738978894158657
   105   1      6.3890815974472073      33.300104678054986     0.13975208230467684
   106   1      8.0934748640493002      35.840001053501844      52.073600037594758
   107   1      8.1803497095110718      34.217674455532659      2.6060030011385895
   108   1      6.1154222209427695      36.597955386050387      2.3450335330271859
   109   1      6.7129914112594937      38.735641783742615       52.07292564029688
   110   1      8.1750114218608569      41.287081482798015      52.100875628342436
   111   1      8.1717439125974209       39.49971397689459      2.7448647086618538
   112   1       6.619911788811895      42.711037751826836      2.3716459077961409
   113   1      6.5136996234618447      44.163854535729136      51.848951989847222
   114   1      8.0888389653910036      47.388598315142836    0.043567985822281663
   115   1      8.2596173942050903      45.659141359105135      2.4301656951311643
   116   1      6.5406845999124963      48.149364263516603      2.7832260993906206
   117   1       6.768693725325833      49.876902029096726      51.955317311138629
   118   1      7.8450827814256829      52.788413032308647    0.086646670187258454
   119   1      7.9605266087401079      50.896679070705474      2.8798616105463331
   120   1      6.7753890829854422      53.869063363457862      3.0263582325730107
   121   1      9.8246767805392299     0.10081577669762286      52.124670533767549
   122   1      11.487590176862817      2.7564119077246754     0.08880592304844187
   123   1      10.820801270617133      1.0583286844604385      2.6611906730746488
   124   1       9.550893418960964      3.5383430958370212       2.442076842773095
   125   1      9.4397483219481906      5.3680186635269251      52.090626019555216
   126   1      11.274306263173505      8.2286605224119498     0.10248017412753817
   127   1      11.452223640997897        6.52519314235649      2.4582032668282969
   128   1      9.7507715201666301      9.1376349302363966      2.5905042723367471
   129   1      9.4601294109334333      10.942521006187546     0.21445327910481712
   130   1      11.463307508169837      13.871762936601037     0.20306900758885657
   131   1      11.503941239115106      12.193906461580012      2.5809112220706751
   132   1      9.9651385421671197      14.797108768650469      2.7484534651376871
   133   1      9.4956773234741529      16.473582866246566    0.067901580891404995
   134   1      11.284386078257681      19.514212785060124      51.847445913209867
   135   1      11.219157832242043      17.667769122607652      2.6132677804881879
   136   1       9.880818908819597      20.448508750143738      2.6174655416990014
   137   1      9.6783573712454345      22.236704779281034      51.812902807196366
   138   1      11.292837747056579      24.883019269868022    0.049048363064479503
   139   1      11.031855481810512      23.242321158075192      3.0953020065269157
   140   1      9.8544798116930394      26.050995068420928      2.8028471813369005
   141   1       9.725692507421261      27.473935804153051      0.0855399563203878
   142   1      11.283231826512027      30.441679252296449      52.046531200604022
   143   1      11.392195980062843      28.728786791380799      2.6157939486790127
   144   1      9.5137354083296071      31.562202877679262      2.4374026246424858
   145   1       9.321768187931319      33.090524762694791    0.082351872907910406
   146   1      11.430048381929435      36.122458895474225      52.053366880847072
   147   1      11.223382869609368      34.134577220251245      2.6144483569515913
   148   1      9.7151888880659616      36.801609731653897      2.5445501461024191
   149   1      9.8269738366551387      38.541510747157027    0.012390238654061986
   150   1      11.243239658216391      41.359909476214781      52.073050435669863
   151   1      11.240437113141507      39.639611983313912      2.6576614429002321
   152   1      9.6520080381663078      42.335252661206617      2.2746026259760912
   153   1      9.7661835870445177      44.256898671480691      52.129756223358022
   154   1      11.470644215922801      47.025313130413714     0.21769996661347074
   155   1      11.409022219286568      45.231487186756411      2.6048520943821298
   156   1      9.7095163335750101      48.268367382253992      2.7463221640631272
   157   1      9.6766888345842652      50.093281373446942     0.22393281408878304
   158   1      11.225602624494968      52.981110283239069     0.12752213123637729
   159   1      11.304471719460299      51.134639292960692       2.574727846692983
   160   1      9.6003223908162632      53.594856077030379      2.6478174329996156
   161   1      12.990881044160528     0.15829490428582763     0.24701823563640715
   162   1      14.700284246668096      3.0170659166749916      52.126614984668556
   163   1      14.658892624396099       1.325536095656271      2.4622162258052716
   164   1       12.86327089798646       3.709356493021752      2.6408885362454857
   165   1      12.677745760572826      5.2757685628995636      51.836355661110936
   166   1      14.796170564038796      8.5690071208702872      51.949939001822905
   167   1      14.733593838691219      6.4985310623533241      2.4222177633123412
   168   1      13.021054160734243      9.2076800886794015      2.5884016403379881
   169   1      12.792974152489963      11.141637396856835       52.04742851226753
   170   1      14.472987127773557      14.026575997136419    0.049051612468009001
   171   1       14.53855966879232      11.751783554574066      2.1882439903839401
   172   1      12.950212996561538      14.856871312738896      2.7316721312744883
   173   1      12.360190017924522      16.570689860477774    0.078428452985223274
   174   1      14.560395437650595      19.539450059232362    0.079571166477476876
   175   1      14.433022337149177      17.603007472928137       2.576688775213317
   176   1      13.039278555365106      20.376778060210295      2.4062224205973384
   177   1      12.947779225641245      22.260991318315849     0.34197586014782538
   178   1      14.797249527304295      24.954251097569507      52.113109191906723
   179   1      14.606210214048218      22.940397765565482       2.857015476691382
   180   1      12.965572741631389      25.640842787847944       2.613458795692047
   181   1      12.838618765123876      27.811095396893215      52.106683273183293
   182   1      14.162352044105527       30.64070010114612      52.102152041795989
   183   1      14.405809524358649      28.774321233907511      2.6528997119224251
   184   1       12.55074539839539      31.552207662784802      2.7891637894227759
   185   1      12.827561508913565      33.450457427828674      52.097594064133702
   186   1       14.39211859061083      36.544746182149339      52.059485923211717
   187   1      14.628901547872925      34.288073165730843      2.4320514074331556
   188   1      12.869447789242479      37.296569120568165      2.6019921756687214
   189   1      12.877898021946468      39.197584998895906    0.020755165145320661
   190   1      14.161619160600301      41.675013940117132    0.034270659446241067
   191   1      14.420209278989423      39.868381964898553       2.655078694236352
   192   1      12.892639149441964      42.571766816460773      2.7220356476879464
   193   1      12.978923671443102      44.252193966183725      51.903465644927806
   194   1      14.519122113407837      46.941668459257698      52.104405406535143
   195   1      14.089893785032176      45.698302876706236      2.3805329485567492
   196   1      12.528006566725621      48.226345318208502      2.8311829604348584
   197   1      13.055478244716129      50.095268314598457     0.29459119471890183
   198   1      14.738011661536147      52.752041800054513     0.25327523260786905
   199   1      14.706696079612914      50.726469260588686      2.6738129197096607
   200   1      12.785333670143313      53.859885552300391       2.514669074396445
   201   1       16.43834300169614     0.21800344063548255     0.19124656258264888
   202   1      17.695769907659216      2.6940284626346207     0.27772642350656723
   203   1      17.854571603080604     0.50190087487875334      2.6866568399327915
   204   1      16.357224768328354      5.8514855327068442      52.088452051580383
   205   1      17.808799390526335      8.5974562637374703      51.881984282338223
   206   1      17.953794931187375      6.3738143220348267      2.2280147631628453
   207   1      16.292071775211692      9.1848462035140948      2.6090957742614425
   208   1      16.269072072078714      11.595717470198831      51.689690260553064
   209   1      17.947668536182505       14.14253744228761    0.045443191547658822
   210   1      17.787627659017613      11.858582856931388      2.5610679453029852
   211   1       15.95846100206235       14.34551718552957      2.5916178814547384
   212   1      16.159206440777652      16.787893853434355     0.10223273933841306
   213   1      17.676707983235747      19.708431894692165      52.073708076083904
   214   1      17.949467042745216      17.314113523095866      2.4364726854276131
   215   1      16.323298405578086      20.351162043032492      2.6956651809307117
   216   1      16.098764500156765      22.402108914689272      52.096919667063993
   217   1      17.929364866480494      24.938554944433641     0.22654037453969483
   218   1      18.063990002377352       23.15070313056685      2.6854898720742555
   219   1      16.118334242716962      26.018462348334488      2.7074253134800066
   220   1      16.021500475101597      27.940122357950347     0.21404519953141737
   221   1      17.883533073868925       30.75560285790484     0.12699503466088607
   222   1      17.633495190070072      28.927515952645237      2.6588700129975562
   223   1      16.110830817122196       31.61970307076918      2.3243448592431144
   224   1      15.876800133512845       33.15640002769689      52.079640033646221
   225   1      17.565091487515875      35.962246938184897      52.097379991289117
   226   1      17.392617042735019      34.354685881908459       2.466225769002949
   227   1       15.91273046262228      37.102439056920275      2.5637634921375922
   228   1      16.270162037502853      38.782473013410254      52.074141818193276
   229   1      17.683789150879171      41.612826048711909      52.094419329574706
   230   1      17.429212621675159      39.595471723439736      2.3929256802159289
   231   1      15.933948905997841      43.025633989004767      2.6333626059944524
   232   1      16.223641123007255      44.363208322520656   0.0048622540093118932
   233   1      17.854407606258022      46.937503835223076     0.03914161613552998
   234   1      15.769494937899838      48.060966588472994      2.3024305545352579
   235   1      15.955633219381138      49.812270745255731      51.878462158337527
   236   1       17.55379818696645      52.372201680142936   0.0065734466012209673
   237   1      17.634158109489462      50.688725055349842      2.1326664037620606
   238   1      15.980988471594143      53.752940328928581      2.3903385121724128
   239   1      19.530842483170328      55.307808023840479      51.939211811003695
   240   1      19.369237810350427      3.6972672160446183      2.9211617068940594
   241   1      21.200847199373904     0.45181063138050753      2.5995964991747433
   242   1      16.259939502419574      3.7375568493073952      2.6421524798996368
   243   1      19.505633685775244      5.6229901100239923      51.974092904444205
   244   1      20.891927771610593      8.2106475407286226      51.968587319213903
   245   1      21.127071268624821      6.3661027940847736      2.8493795074830781
   246   1      19.413599516452503      8.9187411660061731      2.4918428251154987
   247   1      19.350671428906871      11.465323819371591      51.927486826308524
   248   1      20.838914022392022      13.966100419412326    0.020747385814399815
   249   1      20.878395657461922       11.82151940350048      2.6608114538976269
   250   1       19.24613009003393      14.695552022254351      2.4657284665324792
   251   1      19.249289309702185        16.7504109105715    0.062044142787786069
   252   1      20.784703295506013       19.54739707165049    0.028901066844545305
   253   1      20.890128151745063      17.617500785402957      2.9442088121909524
   254   1      19.302835803907314      20.382281857638038      2.8071855129012651
   255   1      19.411044670083175      22.445107209876227    0.015649976908267492
   256   1      21.077101316840579      25.148243026162895      52.118804365286287
   257   1      21.101206956161253      23.137478181863848      2.3682365075021599
   258   1      19.336929846960029       26.39586747539888      2.5536785825075614
   259   1      19.575758353914292      28.158186929422808     0.18964725959912648
   260   1      21.066150595925752      30.731218369266021    0.042613494681392694
   261   1       20.70364653234585      29.017121560690022      2.7485767654282647
   262   1      19.153888412853494      31.754037071193466      2.9761391624475428
   263   1      19.161249512133484      33.255608874774666     0.21946136942988889
   264   1      20.753065670300824      36.359854809911901      52.068424038612378
   265   1      20.631069611724502      34.457346498214712      2.2786735939297666
   266   1      19.074981855631954      37.002604971179856      2.5923170686707167
   267   1       19.18590495755987      38.856807263338048      51.988998029701762
   268   1      21.215229290009656      41.834746200348931      51.880009982173881
   269   1      20.814785618905198       39.94782018755275       2.293555835034204
   270   1      19.556306936870207      42.786703816635629      2.3965375381918541
   271   1      19.661654907499493      44.377524306713063      52.011034460388835
   272   1      21.269218919955382      47.144009959467333      52.022275676105437
   273   1      20.675243756773099      45.798380522439366      2.4744191875630199
   274   1      17.680400149020702      45.233064569348677      2.5370534732489172
   275   1      19.368983204094288      49.838431491743187      51.960404672262364
   276   1        21.0378522199372      52.592063265009976     0.16930171873845548
   277   1      21.117433081505919      50.713715610169899      2.7840860244908927
   278   1      19.226436005741906      53.531048758808474      2.5928206988430951
   279   1      22.457152750955437      55.540715820746719      52.019137577673376
   280   1      20.974167725042783      2.7157029955270504     0.22489899414515527
   281   1      24.229496967847751     0.85486550373803771      2.9505900659432682
   282   1      22.425978646125547      3.5552603636688822      3.0308603107721024
   283   1      22.536101444999197      5.5850473537697471     0.12037123404543444
   284   1       24.10714428382747      8.4749285243749064      52.041339036840654
   285   1      24.176806595309731      6.0734824657449167      2.5791591269213963
   286   1      22.817546601376225      9.2910156578135474      2.5775891678273384
   287   1      22.672337691877651      11.292639824993804      51.956369301228627
   288   1      24.029587447581225      14.177161404135422      51.794067244832362
   289   1      24.170217534351238      12.187361711599324      2.2514398072077264
   290   1      22.467179621623711       14.77870673587922      2.4369226536991295
   291   1      22.136768117147582      17.086557994537831     0.27532371603776912
   292   1      24.308549211188719      19.456991379650624     0.18980517111634124
   293   1      24.135362427247351      17.483746692989399      2.8990037987453805
   294   1      22.263059307122997      20.163958703750101        2.53748399954639
   295   1      22.758095638103221      22.325065126608656      52.035856098209976
   296   1      24.205458122731319      25.163221617933271     0.24600882241068295
   297   1      24.382018654554201      23.202788105278891      2.7184373051101867
   298   1      22.345708903960375      25.929052352846966       2.404173327268889
   299   1      22.814408931579319      27.892677692685812    0.025352929815254707
   300   1      24.137976301341599      30.753326634613767      52.027858361524217
   301   1      24.080456553806055      28.903422069227364      2.5535236170202027
   302   1      22.218548419563806      31.749176705942023      2.5085883909091744
   303   1      22.070873487766466      33.543986431501814      52.026443230655872
   304   1      23.989198721101204      35.903933059487393      51.967576022604774
   305   1      23.795212854423777      34.631939902379884      2.3191842826802969
   306   1       22.44585469441942      37.203755260508046      2.7252091423465377
   307   1      22.521149143139258      38.723613789227137      52.103231236958152
   308   1      24.367509668854993      42.025320042002953      51.812613292178149
   309   1      24.182712822786513      40.048478434100232      2.4818467353126019
   310   1      22.580217512299146      42.568567483880145       2.392014676783369
   311   1      22.473537849452843      44.460002976972994      51.839133208239026
   312   1      24.296408658222219      47.237012863793289     0.30712223973319863
   313   1      23.918290544132031      45.475245775076736      2.5767708324193737
   314   1        22.4737853763252      48.101142140481087      2.5710109247762798
   315   1      22.658439392921473      49.674711100224343     0.10148250862043019
   316   1      24.231833891548639      52.571685712076196    0.066703367375882769
   317   1        24.0121607550563      50.640623239055166      2.3403346014189936
   318   1      22.613125035517374      53.541487486891675      2.6025710969234956
   319   1      24.020633561941441      2.9452035113941677     0.22134931941571159
   320   1      27.237174298748457        2.60365334455477      52.122475671348091
   321   1      27.428130472737827     0.72580365965685301      2.7254807085143806
   322   1      26.075131452208925      3.4043244349810045       2.536323816900901
   323   1      25.979737785918235      5.2580380350179823      0.2249692377887334
   324   1      27.638679188742827         8.4922662907949      52.031241248894801
   325   1      27.403262519676158      6.5530404826995028      2.5256364532238744
   326   1      25.983115306126681      9.6298888193670553       2.216487829343134
   327   1      25.888888737532973      11.682832466907819      51.972723742931109
   328   1      27.166660638606224      14.139825045553318      51.869166348803191
   329   1      27.471534304412931      12.120742481217821      2.5101409551865932
   330   1      25.733077362949281      14.888672887050696      2.6840467104451804
   331   1      25.598979784086417      16.439851792471956    0.022149707914864855
   332   1      27.443031267765711      19.507854920412861      51.971006680533655
   333   1      27.618774600803558      17.669997263013613      2.8688544899870627
   334   1      25.921375360054164      19.883451510095313      2.2833260367422077
   335   1      25.849493390036415      22.311576153954363     0.26354734719194067
   336   1      27.265109003516081      24.917885089634947      0.3457938196678953
   337   1      27.550222366160792      23.300103773767102      2.8815122154586525
   338   1      26.058945114805844      26.214710026191316      2.6437512972565194
   339   1        25.7448059176049      27.839738718671832    0.071084479167825357
   340   1       27.45509138338398      30.676028736084877    0.037851150395560126
   341   1      27.552570881981126       29.10742291093139      2.6415794706296016
   342   1      25.630156851504026      31.841646311814184      2.3245622585807135
   343   1      25.681924755777846       33.43390781063458       52.07074239956814
   344   1      27.277366316994247      36.174782607606602   0.0031366232924669008
   345   1      27.514736407895363      34.378342707664977      2.4946152260449086
   346   1      25.632408753582904      37.249710468432525      2.4682755139782095
   347   1      25.843918087795018      39.342770797273616      51.920594776337225
   348   1      27.528936599973065      41.925142665986058        52.0848212358406
   349   1      27.358226001248688      40.099582416113655      2.4120575100729837
   350   1      26.043179469955565      42.642853879282704      2.4814041320120084
   351   1      26.024877736396668      44.458583008208166      51.846639417764152
   352   1      28.913103927635376       50.09337203920704      51.914924691146695
   353   1      29.144169916792904       42.69959869949291      2.5656559657449676
   354   1      25.474581696559557      48.418181266828235      2.9654228192151191
   355   1      25.689325716960784      50.008046146941425     0.12640829535709994
   356   1      25.449238706628517      54.119644666798997      49.543569239657458
   357   1      26.878501675092679      50.895938863321106      2.6320933066028553
   358   1      25.597016242074893      53.689324108574091      2.8585719827759668
   359   1      28.829265300945938      55.404002740730689     0.22019290165830446