dump/Mg_700_20/steps_81 (written by ASE) 

3980 	 atoms 
1  atom types
0.0      32.100000000000001  xlo xhi
0.0      55.598830921999998  ylo yhi
0.0      52.130399999999995  zlo zhi


Atoms 

     1   1      32.081433459693038    0.055195055975585328    0.012948354285271737
     2   1      1.2331341012840364      2.7446842657515296      52.051453095394756
     3   1      1.3041924795496693      1.1123427716598502      2.7208909706617632
     4   1      31.875473881886641      3.6648637467282428      2.5926437198676893
     5   1    0.064085471449618861      5.5130145663397361    0.033239621501663957
     6   1      1.7988985055850206      8.5191729087788293     0.13669084226416273
     7   1      1.5575997826113051        6.38065237315082      2.8337194020699825
     8   1      32.040998719099598      9.1552869634681109      2.5011542541861442
     9   1     0.15098181620645701      10.986162842263246     0.27340608625803114
    10   1       1.697351450715658      14.048534465243153     0.11420423478914168
    11   1      1.3745385024079384      12.257544180136682      2.6712441353082625
    12   1    0.032405527363563377       14.80647964509847      2.5215073120809168
    13   1   0.0084204623197975809       16.41521101713332      52.040017657030667
    14   1      30.434138542138459      19.348786110297425    0.014554983675724021
    15   1      1.5496429418011988      17.715051560745035      2.4664457904434864
    16   1      32.016488144438959      20.437545474167205      2.7330545754031101
    17   1      32.043872053062096      21.966521270464813    0.099662570823149541
    18   1      1.7085739519567849      24.900706123003705     0.45124839670917488
    19   1      1.6754127385452884      23.158868076447998      2.7560969354614007
    20   1   0.0020232571494052014      26.102125248767607      2.7321417157425603
    21   1     0.45826882890770576      27.555391654156246     0.10241158298119882
    22   1      1.6892952285281522      30.700021793726311      51.775914396536571
    23   1      1.6241073417083509      28.923155967534992      2.6430478541800819
    24   1    0.026235182715802059       31.59648676757719        2.46951929617039
    25   1     0.16804763486668958      33.613818676966503      51.847177803421083
    26   1      1.5559662783686177      36.083604950987571      52.071991900584308
    27   1      1.3885224545713992        34.4143014786398      2.5602800197912909
    28   1      31.992158663545773      37.392300274093188      2.2296387099219062
    29   1      31.934601565529853      39.292937321384841      51.652040527977569
    30   1      1.6062026951351891      41.714405681142495     0.11884928906080694
    31   1      1.4413889728178468      40.048716866406593      2.6856785365099709
    32   1      31.999342272763418      42.644452554238555      2.6155758899486137
    33   1     0.17451222690989701      44.400989820666545   0.0039108651159561322
    34   1      1.6383073990849601      46.936712509691567       51.92244962908449
    35   1      1.9373603455605961      45.275935852378673      2.6198430087437434
    36   1      31.845975797828995      47.811097422129009      2.5141656023323065
    37   1       0.127493553820685       50.00506918493145    0.089945987371243485
    38   1      1.5832131392391533       52.88494586459111      0.2599915140285024
    39   1      1.2094323841113161      50.739520036171598      2.7432699514829277
    40   1      32.057776742949024      53.540094854049656      2.7680292316305981
    41   1      3.1960579785662455      55.517049780412584     0.22460328836070695
    42   1      5.0635770705251142       3.231342830534615    0.064942340811803709
    43   1      5.2734674772583716      1.2616328496317271      2.6939254158537556
    44   1      3.2537530951962235      3.6294300133044435      2.6013408823482282
    45   1      3.3266449881712492      5.7919564989000429     0.24080831606689984
    46   1      5.0008563376010917      8.8051044600033794    0.049730160827337007
    47   1      5.0485952552899098      6.8554400199081353      2.8000768755935859
    48   1      3.0997851581532156      9.2611017813029992      2.8530366125615823
    49   1      3.2573334542616301      11.388749262851549     0.26049975932229041
    50   1      4.8935818660161239      14.261583854888803    0.060428393192591218
    51   1      4.9596517537230245      12.100403342725711      2.5049142827583419
    52   1      3.0574331126368191      14.901041159019604      2.6540430150935848
    53   1      2.9134542066961715       16.65287857585691      52.090657658011445
    54   1       1.599301947768496      19.433618356180748      52.109184459670203
    55   1      4.9462735384626901       17.20822854813521      2.5564878705973291
    56   1      3.4414642347607698      20.428776848701769       2.729069835742719
    57   1       3.402175004388277      22.121885403907562     0.21472946287728753
    58   1      4.8967552305443069      24.815701937158476     0.10963072045544105
    59   1      4.8164281842629473      23.186285935256208      2.5669480550784418
    60   1      3.3416772221308686      26.311210833045177      2.8991466933280243
    61   1       3.305941114028224      27.818763834403583     0.13447172724452927
    62   1      4.8874283724676086      30.656715607081335      51.851246453249999
    63   1      5.0949829957313382       29.14125716460282      2.3400767042711714
    64   1       3.194765921974366      31.577771201636974      2.2659654427802152
    65   1      3.3386929041887701      33.377297481562699      52.038747782657985
    66   1      4.8163399238122064      36.523401876285021     0.11777094218212411
    67   1      4.7685943792878733      34.235223048403988      2.5748878478253459
    68   1      3.1022434385072786      38.937507935611606      4.9702060299957775
    69   1      3.3556146708380679      39.132526274480071      51.941244602455491
    70   1      4.8621770062661067      41.716557495160508     0.20367260542257343
    71   1      2.8842390542759433      37.234038448802472      2.4521218207138156
    72   1      3.2588520004637354      42.778867263141748      2.7629957902922202
    73   1      3.1906904094312418      44.393168752237735     0.27692212168974806
    74   1      4.9856893246517284      47.482213376590465    0.034803590825140049
    75   1      4.9824265345091305      45.449651686671416      2.5273283655533128
    76   1      3.1340672493305362      48.147919996290611      2.5524049196887932
    77   1      3.1982767885189944       50.21426751563817     0.23155480958770377
    78   1      4.8726376748888773      52.859251448973147     0.26987441774490634
    79   1      5.0014918844728982      51.017128424603989      2.7398498915949845
    80   1      3.0762193142562917      53.819402134357929       2.860713128752614
    81   1      6.8388270766821515     0.15427592706704027     0.19654186715704439
    82   1      7.9792642062221217      3.0161945856005392     0.33608649768574772
    83   1      8.2524907948311661      1.1065290099633913       2.634392862382454
    84   1      6.2777426325093026      4.0168656109144054      2.7344082339816302
    85   1      6.2149187553656748      5.8552091846123426     0.19930167633959675
    86   1      8.2430327186447467      8.3316722681763089     0.14900429566018653
    87   1      8.1477440665285066      6.4090362127148799      2.8094875563817205
    88   1      6.9066323288138145      9.3700511345579027      2.9070159343994209
    89   1      6.5609165432297436      11.276888302297246     0.17293129725367645
    90   1      8.0644927735280287      13.852901140935712      52.127976369659919
    91   1      8.4540185661298537      11.993352523461795      2.7170944748779311
    92   1      6.4380506971981282      14.686387996073149       2.636542936887682
    93   1      6.6672532173203738      16.714609165487936     0.34145885574746965
    94   1      8.3556731415906995      19.713950165848143      52.101605135353488
    95   1       8.019756979606079      17.688525980161295       2.769512890779497
    96   1      6.6337775023064136      20.233144772251258      2.8679323518831472
    97   1      6.4226336080006678      22.249216235498501      52.122565272316947
    98   1      8.2576399616347551      25.138750426495644      51.929074581561572
    99   1      8.0237534231859211      22.790032915266572      2.6395119412624988
   100   1      6.4970657317174023      25.774912429227129      2.5683284348923148
   101   1      6.4306071965240186      27.786319624905783       51.99644620191836
   102   1      8.2016741025275408       30.22437229815722      52.070828250414898
   103   1      8.0588361334948253      28.538250419636771      2.4799205571148009
   104   1      6.7879204160988316      31.607664962948462      2.3727655590338506
   105   1      6.4262059760095784      33.257125125859922      51.881823064193775
   106   1      7.9152448836589402      36.022250560913172      51.968210901936253
   107   1      7.9162403251769646      34.352662371973345      2.4187084480084025
   108   1      4.6523168602141842      40.082193788312303      2.3805826083004886
   109   1      6.4253594227163235      39.078657622183449      52.025163239311404
   110   1      7.9547270491724458      41.910005134287303      51.943622492841889
   111   1      8.1143609183851133      40.030688546042896      2.4826971256347812
   112   1      6.7934422511698864      43.004824526562921      2.6928588800365527
   113   1      6.6964581375833276      44.907816672582818     0.16640304829805533
   114   1      8.4443529338997614      47.505389553684793      51.952469211943871
   115   1      8.2525099437858742      45.702397805574776      2.5434047513129374
   116   1       6.420662944513789      48.190519667492254      2.4666993894034972
   117   1      6.5320407882386595      50.062140866093145      52.104995604084856
   118   1      7.9968943901986007      52.895244059816022     0.12003957441220046
   119   1      8.0985348676192732      50.865275150159363      2.7784297258940462
   120   1      6.4774250912508071      54.001225782229987      2.7142411837434461
   121   1      9.8825564822345555    0.074683063778477249      51.853325805291639
   122   1      11.721223484330379      2.3921275488624021      52.044453444950094
   123   1       11.31573769853841     0.92218478290441275      2.3827326421318684
   124   1      9.9206671168452534      3.5537339823827305      2.6719555577304277
   125   1      9.1638717909043663      5.5160560653754995      51.969919178453992
   126   1      11.204665764169649      8.1672696400932612      52.027204831894842
   127   1      11.240285929703431      6.2443450946851513      2.5130719143195175
   128   1      9.9557874573679683      9.2318016727461973      2.6094487386514698
   129   1      9.9663392473875554      11.141748226594027      52.063860983783734
   130   1      11.387216093629076      13.729756014563174      52.072844853089137
   131   1      11.367512047786162      11.781452852593542      2.3724427613919219
   132   1      9.5666881571611881      14.670199907054286      2.5707189082216986
   133   1      9.9655259370479552      16.654860332276378      0.2591652141741288
   134   1      11.603057142740962      19.380588175550017       51.92098236946682
   135   1      11.433753169778232      17.546547444705183      2.5297833618146983
   136   1      9.8715917523797359      20.367891104800872      2.3240319566240322
   137   1      9.9558356586685566      22.265166199455095       51.84400559950371
   138   1      11.499942205297772       24.90726834906836      52.118926177425536
   139   1      11.380590930697691      23.030417204068989      2.6880979108028984
   140   1      9.5028989205963939      25.703796398285803      2.5540326666521884
   141   1      9.8255888900758492      27.640404824996128      52.037197917291465
   142   1      11.221064002011349      30.610500523715622      52.095281125387444
   143   1      11.228107534236971      28.877194168115192      2.5726693612501217
   144   1      9.7758134012173272      31.613593818664999      2.7181327367239967
   145   1      9.5305627689540202      33.548228559000343    0.070677420292833235
   146   1      10.704007747540743      36.286990406295523   0.0067660760227959988
   147   1      11.106952391244842      34.282877707290282      2.4349259164828378
   148   1      9.2169773465679938      36.888544220348983      2.5965838377525516
   149   1      9.6457222941404837       39.09219577545943      51.925088223742321
   150   1      11.279195151693417      41.898264837209723      51.835387685875872
   151   1      11.164267673653754      39.659531267224594      2.5758781793514034
   152   1      9.6716568230167219      42.823295694789792       2.350157815344446
   153   1      9.5934172416103003      44.493842770975185      52.101570419644915
   154   1      11.377175127808639      47.298518315728558      51.824011688343582
   155   1       11.22461269076925      45.465435614724257      2.7252915002711755
   156   1      9.7271678957246817      48.603009505162319      2.2229474285567119
   157   1      9.7519869281738565      50.432549546262969     0.24703498660555795
   158   1      11.431691105803372      52.846423561101602    0.044293036152057826
   159   1      11.293051844073926      51.183766625793027      2.7255047926111566
   160   1      9.8069967439579866      53.967172681927941      2.5516296768370879
   161   1      13.331373530329664      55.306707335460132    0.068798165424722238
   162   1      14.498246889871908      2.8140518365624994      52.119087260178183
   163   1      14.482785386783453     0.85674892433025562      3.0272875744933678
   164   1      12.916524365506499      3.5148135932109072      2.3932861813161703
   165   1      12.835163749543497      5.2813659909035726      51.997554922476219
   166   1      14.279551590766465      8.2900621451026311    0.044212364268874434
   167   1       14.40081701004396      6.5874869955049027      2.6616548055582632
   168   1      13.039184133027604      9.2898323020991125      2.5740833532952148
   169   1      13.118395156525549      11.099550044570829      52.053852976626857
   170   1      14.582341150225586      13.890540518386524     0.10169606500555953
   171   1      14.449967316013295      11.981928173304539      2.5211225125861265
   172   1      12.920510319763173      14.845673424483882      2.5766062135282937
   173   1      13.008605730796631      16.635879313903185      51.968048101719617
   174   1      13.018057702869136      20.293843543812169       49.53546201670877
   175   1      14.493754218198315      17.213764373387153       2.452405095645124
   176   1      12.937411374832756      20.364916702244273      2.5557989185757561
   177   1      12.897353991555214      22.217033150341795      52.013659395932862
   178   1      14.628110614295736      24.976591187129696       51.99162567251016
   179   1      14.597210854093738      23.200284713255908      2.6140606632960224
   180   1      13.140921427060606       26.07157736798397      2.8324793197458127
   181   1      12.990915143824058      27.786370998959121       52.08334577267027
   182   1       14.53728786331647      30.495292945772189    0.074621790221462994
   183   1      14.889184714163433      28.653206158095095        2.55738168382705
   184   1      13.313646361954799      31.397564954671672      2.6494024418435012
   185   1      12.873387341370666      33.488088162521173     0.13489328588640292
   186   1      14.153941395866461      36.373709487290775      52.021458630324517
   187   1      14.790152459738517      34.235305475567692      2.5995624396616002
   188   1       12.81622598588806      37.147073797352704      2.4359560578544674
   189   1      12.658890727103151      38.792922521908046     0.20324472179906869
   190   1       14.76289819375438      41.629899977456212      51.831618423872378
   191   1      14.461036185414404      39.718598774049831      2.3998177151456597
   192   1      12.520051288861685      42.537403842107608       2.697545196553246
   193   1      12.851265636378129      44.535845686710267     0.39366487626723162
   194   1      14.359959768195335      47.246616149613203      52.068268648553584
   195   1      14.704140346875437      46.005254083733419      2.6033257593009034
   196   1      12.896787081249736      48.406404580239268      2.7833712937790938
   197   1      12.805096489457441      49.942730998087939     0.13299392101646876
   198   1      14.613648328526304      52.706193174012363      51.709064428881284
   199   1      14.461765287965697      51.008140423597631      2.6655473553177025
   200   1      12.907442580896941       53.88412060447363      2.5867716247660768
   201   1      16.154503384272264     0.21685644205074625      52.095335677267968
   202   1       17.62065070879866      2.9390841248794413    0.033752451021806067
   203   1      17.410028953034132     0.74783155244125332      2.7151747831896191
   204   1      15.912602201381754      5.7363384853466268    0.066581407336837234
   205   1      17.334270739947236      8.5601081030440778     0.11915321272830666
   206   1       17.52286329821122      6.4433401752599115      2.7079004050789988
   207   1      16.147378437560135      9.1454594943067562      2.6581516656856405
   208   1      16.010617936212242      10.976666316068059    0.024409633191928595
   209   1      17.536795015818882      13.732193881692822     0.11492843064811364
   210   1      17.654929751088453      11.848393215126796      2.5926881752911606
   211   1      16.119676304551202      14.673647748016647        2.74137122938185
   212   1      16.412118392986589      16.306852838914736      52.069846683240392
   213   1      17.823223278700784      18.964697564483743     0.21087988351032688
   214   1      17.883822112755063      17.312877124420091      2.8492729957951757
   215   1       16.00930650118012      19.880299996510395      2.5123772761855121
   216   1      16.125311321167786      22.296553689905039    0.007562615138566698
   217   1      17.674867012748873      25.084635335505499     0.20699903818797785
   218   1      17.803697227606719      23.140974801580558      2.4854686937489645
   219   1      16.017654651161177      25.785180838388651      2.7795250561926421
   220   1      16.205795580218702      27.860227693904029      52.064171754463288
   221   1      17.827206038085109      30.523615465606852      51.701265777089318
   222   1      17.757640554217993      28.531681297746534      2.5242659490708399
   223   1      16.261226362030463      31.293983084569192      2.6164833040135034
   224   1      16.031232443433332      33.211695910024162      52.021689708120149
   225   1      17.717256530436764      36.099037551436119      51.883189436232513
   226   1      17.880177942093535       34.45710069960262      2.3071840056324744
   227   1      15.892946485442424      37.229196169989386       2.340754667740232
   228   1      16.271460936095785      38.722013273379154      51.959170231483057
   229   1      17.786392181595374      41.963700725188467      52.022266444132065
   230   1      17.508773213746057      40.040686270291566      2.5131722939998675
   231   1      15.945147336606407      42.811393271219394      2.3541498747147753
   232   1      16.106728930573226      44.522399164496449       52.10911063588955
   233   1      17.449208890733569       47.35735712251256    0.096340801504163909
   234   1      16.167581906161157      48.588640473090926      2.5363650995806393
   235   1      15.900924908687028      49.954035091571825      51.949281826831921
   236   1      17.825274748324311      52.741740509892395    0.090493987180421842
   237   1      17.710055516729181      51.063578048051383      2.8260538483191184
   238   1      16.038551635869311      53.478282952633116      2.5761804660373504
   239   1       19.31503549662634     0.22634894995183727     0.21295186948166517
   240   1      19.179075210394451      3.7885550667756385      2.7258144594399694
   241   1      21.265324050372154     0.89408880142274105      2.6856170261332419
   242   1      15.974956919003153      3.9096679383857071      2.5706439704440798
   243   1      19.216137089943373      5.7112114032005517      52.112779209813318
   244   1      20.627891375346607      8.3884044642100442     0.20040886258136403
   245   1      21.284141139849819       6.706515121157552      2.5283057066837831
   246   1      18.979581672679558      9.3187132692376231      2.6741882799088512
   247   1      19.467183205715951      11.125768838272352    0.042324316400311715
   248   1       20.97354189302596      13.597638429054914     0.24176690177152788
   249   1      20.843810950278478      11.805926901222124      2.7534820494451284
   250   1      19.325824499320042       14.50664379493046      2.6181384712239781
   251   1      19.617659294040642      16.426745240909959     0.15302431844501524
   252   1      20.939919705432654       19.20831094150153    0.077451007761001042
   253   1      20.785173015425674      17.202452783975755      2.7692874314596643
   254   1      19.247582714744144      19.839606845491801      2.7533691421193822
   255   1      19.409817577102494      21.994974448812524     0.14659013647382871
   256   1      21.267464505144776      24.909733746461924      52.034751594269984
   257   1      20.968439126248818       23.06078345299057      2.4225827124470372
   258   1       19.42082146080288      26.045794526438875      2.6014684659924936
   259   1      19.364705455624762      27.903797682745797      52.013760187125506
   260   1      20.931581775398183      30.803038629049688        51.9696426584363
   261   1      20.939829873762672      28.609361090941583      2.1780173786326609
   262   1      19.356106656794736      31.232701150376595      2.5055465100133829
   263   1      19.413098813787954      33.318837590760843    0.039575484326116572
   264   1      20.775098273379736      36.099378838083695     0.12232798765592041
   265   1        21.1717463744673      34.158431288492409      2.4566947710838627
   266   1      19.322875602236643      37.356236865644981      2.4511380256698283
   267   1      19.206251791437623       38.99940016296263      51.985815344282962
   268   1      20.808620857806542      41.816512655063192      51.991658756624389
   269   1      20.739474689045981      39.876932044738822      2.7315872394516054
   270   1      18.980450516457363      42.683145936334348      2.6236975426806342
   271   1      19.220543866322949      44.615362240898392    0.088049409877681367
   272   1      20.808081766944074      47.561766066640452      52.117813847895015
   273   1      19.084958840358663      48.120679131189277      2.5813099164755711
   274   1      17.728591514968205      45.330081662080694      2.3633653903103053
   275   1      19.291671421553943      50.300699241501434      52.103363724808617
   276   1      20.818264120864892      52.898147329572218      52.092162446251521
   277   1      20.789807465088664      50.835349928769148       2.377636051651324
   278   1       19.27847061136994      53.872405164898943      2.4901241135278052
   279   1      22.488914303731665     0.25806569332290558      51.995997864165503
   280   1       20.67066284957744      3.0435577672155625     0.26967839991872478
   281   1      24.173365886645865      0.9133252668523254      2.3250608933907824
   282   1       22.43606407219827      4.0075232078019196       2.760834681724587
   283   1      22.413111469076728      5.3599138092203917    0.069534872429602435
   284   1      23.977434848991152      7.8996942993329817      51.956153694811711
   285   1      24.195431135699945      6.6726349921850616      2.3978626234970979
   286   1       22.54345708204168      9.3637492970299121      2.8698174189034291
   287   1      22.837082901013119      10.837738893611652     0.17470450623625142
   288   1      24.045824499849576      13.991715500496746    0.033260557052774954
   289   1      24.072948164755655      12.333495140354577      2.8786706087473317
   290   1      22.427132180464231      14.676867775267031      2.8060028984428813
   291   1      22.721195650243477      16.661340519859348  0.00069109843075330056
   292   1      24.457612351301037      19.487042845232832    0.036648015077947446
   293   1      24.165637672361555      17.324259753114831      2.5559054705107926
   294   1      22.385442793606749      20.118330526681696      2.7449449224590325
   295   1      22.677188662695468      21.809368693127073    0.069218203156332023
   296   1      24.226756551008933      24.814514584678772      51.985509366746257
   297   1       24.00778980125196      23.061381617767744      2.3886492366674448
   298   1      22.588127317457698       25.96776254451785      2.5798277189537488
   299   1      22.612926138860683      27.773776078060113     0.10585847961276423
   300   1      24.054064358720989      30.605967663232715    0.097663046337163037
   301   1       24.13959003060959      28.625330870305454      2.5415423124873882
   302   1       22.51751969329591      31.226964531684686      2.3933352891804711
   303   1      22.745013006709673      33.525911809318309     0.04228458316120165
   304   1      23.935936222391291      36.316393602129658     0.16641030572005547
   305   1       24.33735130272122      33.967822338507418      2.3164975120206961
   306   1      22.504249074513858      37.314414475786606      2.7712989076024437
   307   1      22.499816239479525      38.959791661296343      51.981324964938167
   308   1      24.220005994789886      41.949966841009847     0.19124990939479511
   309   1      24.054427822593226      39.776574044164036      2.5856887072091133
   310   1       22.24812385718343      42.814340817947361      2.6117846274243446
   311   1      22.331652377540887       44.66645854293359    0.061959148477241606
   312   1      24.200925435794595      47.359857726324108      51.913346166438714
   313   1      20.729900130384362      45.249236308995002      2.8143774325908968
   314   1      22.126411650511418      48.205801915962532      2.7781806578867179
   315   1      22.625134855003779      50.027372771754763      51.982788862625078
   316   1      24.480718035444713      52.764594938305038     0.05619460418162054
   317   1      24.296186649156745      51.076099383474826      2.4459767483943731
   318   1      22.597135069937032      53.713798037289664      2.3134675512762124
   319   1      24.439902335581987      2.8061090156298976    0.023147073764240942
   320   1       27.50977537496145      2.3981815017948969      51.968807110091284
   321   1      27.333442160982806     0.92900182038758716      2.2292778067888777
   322   1       25.95371851069395       3.725073859289183      2.5889857229752535
   323   1      25.855899799934079        5.43817770315058     0.16993419259090908
   324   1      27.264250854822578       8.328433420497209     0.13912265436799043
   325   1      27.321966504214291      6.0500174805941924      2.8183049855346427
   326   1      25.595401787360455      9.2684422801813522      2.5881131232039705
   327   1      25.729857345644486       11.03488434179561     0.29495660860696526
   328   1      27.303040628757163      13.819945480356747     0.03587733720911547
   329   1      27.212495472503726      11.779323580167611      2.9619283708450181
   330   1      26.068420977415634      14.781355953901572      2.7780592506516455
   331   1      25.730299172634211      16.824111551741129    0.068757835353368463
   332   1      27.457528819719855      19.163916970265156     0.10922322417806685
   333   1      27.046932051531634      18.029446017999785      2.6552518598623522
   334   1      25.496054519172652      20.548202686448914      2.6457399566635429
   335   1       25.65288190654034      22.176103922666911    0.037763543494170215
   336   1      27.132820714180216      24.916393305967308      52.124726694623781
   337   1      27.373916789891311      23.400247661355536      2.6893248665692173
   338   1      25.799339662433258      25.907540273279771      2.4908197682234983
   339   1      25.670029658894347      27.832488394005928     0.20388195658952893
   340   1      27.318863559363756       30.73492073649415   0.0055169639269592226
   341   1       27.37707442620987      29.015173947027684      2.5906274113543111
   342   1      25.699091567834458       31.46967707749485      2.4506337849926796
   343   1      25.747087714645772      33.378987540365749      51.883457831713116
   344   1      27.024843139717966      36.180519243295286      52.028901937891582
   345   1      27.391580346599536      34.403977545435851      2.4552027380535177
   346   1      25.569849231157246      36.909536050412981      2.7274883207247362
   347   1      25.590551799472497       38.88726975547295      51.902116984363701
   348   1      27.112267426646348      41.555555169544711    0.026370215869000166
   349   1      27.122950415262665      39.681349022985941      2.2222649524657538
   350   1       25.43985166803818      42.560107269687222      2.6546191345053067
   351   1      25.740160905150098      44.538271578259049      52.116409270553341
   352   1      29.075751196856324      49.778050442542352    0.060643530067494296
   353   1       28.70795027850021       42.41793944740877      2.2428910969111682
   354   1      27.655243683126898      47.440778657560188      51.883803295725592
   355   1      25.786959454313646      49.663468013157754    0.053023456545600332
   356   1      26.048436589913731      53.672389420477735       49.50979465538704
   357   1       27.34221088518656      51.027787966235195      2.6174008163460174
   358   1      25.840477381860847      53.972558796616731      2.5954473950318682
   359   1      29.109765081356436      55.356838302632852      51.992138389343047